  24  24   0   0
  0.1345023E+02  0.8002600E-09  0.5407180E-09  0.7624290E-09  0.5000000E-15
   1.0000000000000000E-004
  CAR 
 unknown system                          
     13.17711172    -56.56924822  301      0.97149873      1.00000000
    -56.569  0.0000E+00  0.0000E+00
    -56.337  0.0000E+00  0.0000E+00
    -56.104  0.0000E+00  0.0000E+00
    -55.872  0.0000E+00  0.0000E+00
    -55.639  0.0000E+00  0.0000E+00
    -55.407  0.0000E+00  0.0000E+00
    -55.174  0.0000E+00  0.0000E+00
    -54.942  0.0000E+00  0.0000E+00
    -54.709  0.0000E+00  0.0000E+00
    -54.477  0.0000E+00  0.0000E+00
    -54.244  0.0000E+00  0.0000E+00
    -54.012  0.0000E+00  0.0000E+00
    -53.779  0.0000E+00  0.0000E+00
    -53.547  0.0000E+00  0.0000E+00
    -53.314  0.2079E+02  0.8000E+01
    -53.082  0.0000E+00  0.8000E+01
    -52.849  0.0000E+00  0.8000E+01
    -52.617  0.0000E+00  0.8000E+01
    -52.384  0.0000E+00  0.8000E+01
    -52.152  0.0000E+00  0.8000E+01
    -51.919  0.0000E+00  0.8000E+01
    -51.687  0.0000E+00  0.8000E+01
    -51.455  0.0000E+00  0.8000E+01
    -51.222  0.0000E+00  0.8000E+01
    -50.990  0.0000E+00  0.8000E+01
    -50.757  0.0000E+00  0.8000E+01
    -50.525  0.0000E+00  0.8000E+01
    -50.292  0.0000E+00  0.8000E+01
    -50.060  0.0000E+00  0.8000E+01
    -49.827  0.0000E+00  0.8000E+01
    -49.595  0.0000E+00  0.8000E+01
    -49.362  0.0000E+00  0.8000E+01
    -49.130  0.0000E+00  0.8000E+01
    -48.897  0.0000E+00  0.8000E+01
    -48.665  0.0000E+00  0.8000E+01
    -48.432  0.0000E+00  0.8000E+01
    -48.200  0.0000E+00  0.8000E+01
    -47.967  0.0000E+00  0.8000E+01
    -47.735  0.0000E+00  0.8000E+01
    -47.502  0.0000E+00  0.8000E+01
    -47.270  0.3441E+02  0.1600E+02
    -47.037  0.0000E+00  0.1600E+02
    -46.805  0.0000E+00  0.1600E+02
    -46.572  0.0000E+00  0.1600E+02
    -46.340  0.0000E+00  0.1600E+02
    -46.107  0.0000E+00  0.1600E+02
    -45.875  0.0000E+00  0.1600E+02
    -45.642  0.0000E+00  0.1600E+02
    -45.410  0.0000E+00  0.1600E+02
    -45.177  0.0000E+00  0.1600E+02
    -44.945  0.0000E+00  0.1600E+02
    -44.712  0.0000E+00  0.1600E+02
    -44.480  0.0000E+00  0.1600E+02
    -44.247  0.0000E+00  0.1600E+02
    -44.015  0.0000E+00  0.1600E+02
    -43.782  0.0000E+00  0.1600E+02
    -43.550  0.0000E+00  0.1600E+02
    -43.317  0.0000E+00  0.1600E+02
    -43.085  0.0000E+00  0.1600E+02
    -42.852  0.0000E+00  0.1600E+02
    -42.620  0.0000E+00  0.1600E+02
    -42.387  0.0000E+00  0.1600E+02
    -42.155  0.0000E+00  0.1600E+02
    -41.923  0.0000E+00  0.1600E+02
    -41.690  0.0000E+00  0.1600E+02
    -41.458  0.0000E+00  0.1600E+02
    -41.225  0.0000E+00  0.1600E+02
    -40.993  0.0000E+00  0.1600E+02
    -40.760  0.0000E+00  0.1600E+02
    -40.528  0.0000E+00  0.1600E+02
    -40.295  0.0000E+00  0.1600E+02
    -40.063  0.0000E+00  0.1600E+02
    -39.830  0.0000E+00  0.1600E+02
    -39.598  0.0000E+00  0.1600E+02
    -39.365  0.0000E+00  0.1600E+02
    -39.133  0.0000E+00  0.1600E+02
    -38.900  0.0000E+00  0.1600E+02
    -38.668  0.0000E+00  0.1600E+02
    -38.435  0.0000E+00  0.1600E+02
    -38.203  0.0000E+00  0.1600E+02
    -37.970  0.0000E+00  0.1600E+02
    -37.738  0.0000E+00  0.1600E+02
    -37.505  0.0000E+00  0.1600E+02
    -37.273  0.0000E+00  0.1600E+02
    -37.040  0.0000E+00  0.1600E+02
    -36.808  0.0000E+00  0.1600E+02
    -36.575  0.0000E+00  0.1600E+02
    -36.343  0.0000E+00  0.1600E+02
    -36.110  0.0000E+00  0.1600E+02
    -35.878  0.0000E+00  0.1600E+02
    -35.645  0.0000E+00  0.1600E+02
    -35.413  0.0000E+00  0.1600E+02
    -35.180  0.0000E+00  0.1600E+02
    -34.948  0.0000E+00  0.1600E+02
    -34.715  0.0000E+00  0.1600E+02
    -34.483  0.0000E+00  0.1600E+02
    -34.250  0.0000E+00  0.1600E+02
    -34.018  0.0000E+00  0.1600E+02
    -33.785  0.0000E+00  0.1600E+02
    -33.553  0.0000E+00  0.1600E+02
    -33.320  0.0000E+00  0.1600E+02
    -33.088  0.0000E+00  0.1600E+02
    -32.855  0.0000E+00  0.1600E+02
    -32.623  0.0000E+00  0.1600E+02
    -32.391  0.0000E+00  0.1600E+02
    -32.158  0.0000E+00  0.1600E+02
    -31.926  0.0000E+00  0.1600E+02
    -31.693  0.0000E+00  0.1600E+02
    -31.461  0.0000E+00  0.1600E+02
    -31.228  0.0000E+00  0.1600E+02
    -30.996  0.0000E+00  0.1600E+02
    -30.763  0.0000E+00  0.1600E+02
    -30.531  0.0000E+00  0.1600E+02
    -30.298  0.0000E+00  0.1600E+02
    -30.066  0.0000E+00  0.1600E+02
    -29.833  0.0000E+00  0.1600E+02
    -29.601  0.1577E+02  0.2800E+02
    -29.368  0.0000E+00  0.4000E+02
    -29.136  0.0000E+00  0.4000E+02
    -28.903  0.0000E+00  0.4000E+02
    -28.671  0.0000E+00  0.4000E+02
    -28.438  0.0000E+00  0.4000E+02
    -28.206  0.0000E+00  0.4000E+02
    -27.973  0.0000E+00  0.4000E+02
    -27.741  0.0000E+00  0.4000E+02
    -27.508  0.0000E+00  0.4000E+02
    -27.276  0.0000E+00  0.4000E+02
    -27.043  0.0000E+00  0.4000E+02
    -26.811  0.0000E+00  0.4000E+02
    -26.578  0.0000E+00  0.4000E+02
    -26.346  0.0000E+00  0.4000E+02
    -26.113  0.0000E+00  0.4000E+02
    -25.881  0.0000E+00  0.4000E+02
    -25.648  0.0000E+00  0.4000E+02
    -25.416  0.0000E+00  0.4000E+02
    -25.183  0.0000E+00  0.4000E+02
    -24.951  0.0000E+00  0.4000E+02
    -24.718  0.0000E+00  0.4000E+02
    -24.486  0.0000E+00  0.4000E+02
    -24.253  0.0000E+00  0.4000E+02
    -24.021  0.0000E+00  0.4000E+02
    -23.788  0.0000E+00  0.4000E+02
    -23.556  0.0000E+00  0.4000E+02
    -23.323  0.0000E+00  0.4000E+02
    -23.091  0.0000E+00  0.4000E+02
    -22.859  0.0000E+00  0.4000E+02
    -22.626  0.0000E+00  0.4000E+02
    -22.394  0.0000E+00  0.4000E+02
    -22.161  0.0000E+00  0.4000E+02
    -21.929  0.0000E+00  0.4000E+02
    -21.696  0.0000E+00  0.4000E+02
    -21.464  0.0000E+00  0.4000E+02
    -21.231  0.0000E+00  0.4000E+02
    -20.999  0.0000E+00  0.4000E+02
    -20.766  0.0000E+00  0.4000E+02
    -20.534  0.0000E+00  0.4000E+02
    -20.301  0.6526E+00  0.4015E+02
    -20.069  0.1576E+02  0.5350E+02
    -19.836  0.0000E+00  0.5600E+02
    -19.604  0.0000E+00  0.5600E+02
    -19.371  0.0000E+00  0.5600E+02
    -19.139  0.2231E+02  0.7119E+02
    -18.906  0.0000E+00  0.8000E+02
    -18.674  0.0000E+00  0.8000E+02
    -18.441  0.0000E+00  0.8000E+02
    -18.209  0.0000E+00  0.8000E+02
    -17.976  0.0000E+00  0.8000E+02
    -17.744  0.0000E+00  0.8000E+02
    -17.511  0.0000E+00  0.8000E+02
    -17.279  0.0000E+00  0.8000E+02
    -17.046  0.0000E+00  0.8000E+02
    -16.814  0.0000E+00  0.8000E+02
    -16.581  0.0000E+00  0.8000E+02
    -16.349  0.0000E+00  0.8000E+02
    -16.116  0.0000E+00  0.8000E+02
    -15.884  0.0000E+00  0.8000E+02
    -15.651  0.0000E+00  0.8000E+02
    -15.419  0.0000E+00  0.8000E+02
    -15.186  0.3782E+01  0.8188E+02
    -14.954  0.2130E+02  0.8928E+02
    -14.721  0.0000E+00  0.9200E+02
    -14.489  0.4536E+01  0.9305E+02
    -14.256  0.0000E+00  0.9400E+02
    -14.024  0.0000E+00  0.9600E+02
    -13.791  0.0000E+00  0.9600E+02
    -13.559  0.0000E+00  0.9600E+02
    -13.327  0.0000E+00  0.9600E+02
    -13.094  0.0000E+00  0.9600E+02
    -12.862  0.0000E+00  0.9600E+02
    -12.629  0.0000E+00  0.9600E+02
    -12.397  0.0000E+00  0.9600E+02
    -12.164  0.0000E+00  0.9600E+02
    -11.932  0.0000E+00  0.9600E+02
    -11.699  0.0000E+00  0.9600E+02
    -11.467  0.0000E+00  0.9600E+02
    -11.234  0.0000E+00  0.9600E+02
    -11.002  0.0000E+00  0.9600E+02
    -10.769  0.0000E+00  0.9600E+02
    -10.537  0.0000E+00  0.9600E+02
    -10.304  0.0000E+00  0.9600E+02
    -10.072  0.0000E+00  0.9600E+02
     -9.839  0.0000E+00  0.9600E+02
     -9.607  0.0000E+00  0.9600E+02
     -9.374  0.0000E+00  0.9600E+02
     -9.142  0.0000E+00  0.9600E+02
     -8.909  0.0000E+00  0.9600E+02
     -8.677  0.0000E+00  0.9600E+02
     -8.444  0.0000E+00  0.9600E+02
     -8.212  0.0000E+00  0.9600E+02
     -7.979  0.0000E+00  0.9600E+02
     -7.747  0.0000E+00  0.9600E+02
     -7.514  0.0000E+00  0.9600E+02
     -7.282  0.0000E+00  0.9600E+02
     -7.049  0.0000E+00  0.9600E+02
     -6.817  0.0000E+00  0.9600E+02
     -6.584  0.0000E+00  0.9600E+02
     -6.352  0.0000E+00  0.9600E+02
     -6.119  0.0000E+00  0.9600E+02
     -5.887  0.0000E+00  0.9600E+02
     -5.654  0.0000E+00  0.9600E+02
     -5.422  0.0000E+00  0.9600E+02
     -5.189  0.0000E+00  0.9600E+02
     -4.957  0.0000E+00  0.9600E+02
     -4.724  0.0000E+00  0.9600E+02
     -4.492  0.0000E+00  0.9600E+02
     -4.259  0.0000E+00  0.9600E+02
     -4.027  0.0000E+00  0.9600E+02
     -3.795  0.0000E+00  0.9600E+02
     -3.562  0.8619E+01  0.1008E+03
     -3.330  0.5088E+01  0.1033E+03
     -3.097  0.4577E+01  0.1062E+03
     -2.865  0.7449E+01  0.1112E+03
     -2.632  0.7850E+01  0.1153E+03
     -2.400  0.9900E+01  0.1230E+03
     -2.167  0.7015E+01  0.1277E+03
     -1.935  0.6796E+01  0.1327E+03
     -1.702  0.4868E+01  0.1379E+03
     -1.470  0.4259E+01  0.1397E+03
     -1.237  0.1278E+02  0.1466E+03
     -1.005  0.1239E+02  0.1537E+03
     -0.772  0.8206E+01  0.1607E+03
     -0.540  0.8141E+01  0.1689E+03
     -0.307  0.4017E+01  0.1713E+03
     -0.075  0.7429E+01  0.1751E+03
      0.158  0.4050E+01  0.1803E+03
      0.390  0.5728E+01  0.1846E+03
      0.623  0.5596E+01  0.1880E+03
      0.855  0.8641E+01  0.1913E+03
      1.088  0.0000E+00  0.1920E+03
      1.320  0.0000E+00  0.1920E+03
      1.553  0.0000E+00  0.1920E+03
      1.785  0.0000E+00  0.1920E+03
      2.018  0.0000E+00  0.1920E+03
      2.250  0.0000E+00  0.1920E+03
      2.483  0.0000E+00  0.1920E+03
      2.715  0.0000E+00  0.1920E+03
      2.948  0.0000E+00  0.1920E+03
      3.180  0.0000E+00  0.1920E+03
      3.413  0.0000E+00  0.1920E+03
      3.645  0.0000E+00  0.1920E+03
      3.878  0.0000E+00  0.1920E+03
      4.110  0.0000E+00  0.1920E+03
      4.343  0.2940E+01  0.1927E+03
      4.575  0.2964E+01  0.1948E+03
      4.808  0.2896E+01  0.1967E+03
      5.040  0.5016E+01  0.1993E+03
      5.273  0.2094E+01  0.2005E+03
      5.505  0.6179E+01  0.2037E+03
      5.737  0.2544E+00  0.2064E+03
      5.970  0.3805E+01  0.2088E+03
      6.202  0.4301E+01  0.2113E+03
      6.435  0.7736E+01  0.2138E+03
      6.667  0.1581E+01  0.2157E+03
      6.900  0.0000E+00  0.2160E+03
      7.132  0.0000E+00  0.2160E+03
      7.365  0.8771E-09  0.2160E+03
      7.597  0.0000E+00  0.2162E+03
      7.830  0.8672E+00  0.2165E+03
      8.062  0.9979E+00  0.2170E+03
      8.295  0.4110E+01  0.2185E+03
      8.527  0.9777E+00  0.2211E+03
      8.760  0.8768E+00  0.2226E+03
      8.992  0.1766E+01  0.2238E+03
      9.225  0.3572E+01  0.2260E+03
      9.457  0.2150E+01  0.2275E+03
      9.690  0.1864E+01  0.2289E+03
      9.922  0.2123E+01  0.2297E+03
     10.155  0.0000E+00  0.2300E+03
     10.387  0.0000E+00  0.2300E+03
     10.620  0.0000E+00  0.2300E+03
     10.852  0.0000E+00  0.2300E+03
     11.085  0.0000E+00  0.2300E+03
     11.317  0.0000E+00  0.2300E+03
     11.550  0.0000E+00  0.2300E+03
     11.782  0.0000E+00  0.2300E+03
     12.015  0.0000E+00  0.2300E+03
     12.247  0.0000E+00  0.2300E+03
     12.480  0.0000E+00  0.2300E+03
     12.712  0.0000E+00  0.2300E+03
     12.945  0.0000E+00  0.2300E+03
     13.177  0.0000E+00  0.2300E+03
