       N       E                     dE             d eps       ncg     rms          rms(c)
DAV:   1     0.350960634171E+04    0.35096E+04   -0.10330E+05  5552   0.192E+03
DAV:   2     0.423475866063E+03   -0.30861E+04   -0.28958E+04  5537   0.802E+02
DAV:   3    -0.195156369323E+03   -0.61863E+03   -0.60565E+03  8758   0.357E+02
DAV:   4    -0.230297962066E+03   -0.35142E+02   -0.34938E+02  8576   0.104E+02
DAV:   5    -0.231256208751E+03   -0.95825E+00   -0.95322E+00  8728   0.179E+01    0.500E+01
DAV:   6    -0.183352145267E+03    0.47904E+02   -0.19812E+02  9360   0.831E+01    0.186E+01
DAV:   7    -0.183008952596E+03    0.34319E+00   -0.32230E+01  8024   0.300E+01    0.399E+01
DAV:   8    -0.183411426463E+03   -0.40247E+00   -0.19177E+00  8736   0.790E+00    0.507E+01
DAV:   9    -0.183173223849E+03    0.23820E+00   -0.29954E+00  9056   0.135E+01    0.201E+01
DAV:  10    -0.182805137737E+03    0.36809E+00   -0.59994E-01  9472   0.727E+00    0.230E+01
DAV:  11    -0.182751686121E+03    0.53452E-01   -0.36474E-01  7912   0.239E+00    0.170E+01
DAV:  12    -0.182772598917E+03   -0.20913E-01   -0.19011E-02  8592   0.105E+00    0.147E+01
DAV:  13    -0.182759237420E+03    0.13361E-01   -0.99204E-03  8880   0.655E-01    0.810E+00
DAV:  14    -0.182736915153E+03    0.22322E-01   -0.26276E-02  8984   0.894E-01    0.527E+00
DAV:  15    -0.182731196709E+03    0.57184E-02   -0.94331E-03  8872   0.418E-01    0.346E+00
DAV:  16    -0.182726951393E+03    0.42453E-02   -0.52410E-03  8936   0.354E-01    0.260E+00
DAV:  17    -0.182725447293E+03    0.15041E-02   -0.33344E-03  8664   0.245E-01    0.146E+00
DAV:  18    -0.182724734267E+03    0.71303E-03   -0.23229E-03  9016   0.228E-01    0.429E-01
DAV:  19    -0.182724737928E+03   -0.36618E-05   -0.39285E-04  8560   0.983E-02    0.132E-01
DAV:  20    -0.182724736187E+03    0.17410E-05   -0.38541E-05  8656   0.327E-02    0.818E-02
DAV:  21    -0.182724737262E+03   -0.10749E-05   -0.45227E-06  8560   0.125E-02    0.600E-02
DAV:  22    -0.182724736427E+03    0.83581E-06   -0.13177E-06  8232   0.800E-03    0.325E-02
DAV:  23    -0.182724736088E+03    0.33848E-06   -0.73071E-07  8040   0.396E-03    0.221E-02
DAV:  24    -0.182724736086E+03    0.19754E-08   -0.77625E-08  6648   0.172E-03
   1 F= -.18272474E+03 E0= -.18272474E+03  d E =-.129339E-41
DAV:   1    -0.535190969702E+04   -0.53519E+04   -0.16397E+00  6810   0.623E+00
DAV:   2    -0.535192421537E+04   -0.14518E-01   -0.14518E-01  7864   0.182E+00
DAV:   3    -0.535192475972E+04   -0.54434E-03   -0.54433E-03  8520   0.365E-01
DAV:   4    -0.535192480172E+04   -0.42000E-04   -0.41999E-04  8528   0.800E-02
DAV:   5    -0.535192480538E+04   -0.36632E-05   -0.36630E-05  8768   0.249E-02
DAV:   6    -0.535192480578E+04   -0.40512E-06   -0.40529E-06  7288   0.666E-03
DAV:   7    -0.535192480583E+04   -0.42343E-07   -0.42282E-07  6208   0.238E-03
DAV:   8    -0.535192480583E+04   -0.45829E-08   -0.43334E-08  5272   0.819E-04
       N       E                     dE             d eps       ncg     rms
RMM:   1    -0.499880027427E+03   -0.49988E+03   -0.27739E+03  5599   0.498E+02
RMM:   2    -0.633964651274E+03   -0.13408E+03   -0.79635E+02  9886   0.690E+01
RMM:   3    -0.656425120125E+03   -0.22460E+02   -0.10500E+02 10837   0.181E+01
RMM:   4    -0.659964663250E+03   -0.35395E+01   -0.13138E+01 10911   0.595E+00
RMM:   5    -0.660520909073E+03   -0.55625E+00   -0.20935E+00 11372   0.219E+00
RMM:   6    -0.660608811548E+03   -0.87902E-01   -0.36443E-01 11036   0.807E-01
RMM:   7    -0.660620288937E+03   -0.11477E-01   -0.37963E-02 11600   0.288E-01
RMM:   8    -0.660621926325E+03   -0.16374E-02   -0.78369E-03 11439   0.110E-01
RMM:   9    -0.660622161212E+03   -0.23489E-03   -0.77913E-04 11617   0.374E-02
RMM:  10    -0.660622198845E+03   -0.37633E-04   -0.18830E-04 10763   0.145E-02
RMM:  11    -0.660622206139E+03   -0.72939E-05   -0.18698E-05  9010   0.524E-03
RMM:  12    -0.660622207178E+03   -0.10397E-05   -0.55533E-06  7945   0.220E-03
RMM:  13    -0.660622207375E+03   -0.19677E-06   -0.54384E-07  6642   0.859E-04
RMM:  14    -0.660622207404E+03   -0.28380E-07   -0.14790E-07  4808   0.433E-04
RMM:  15    -0.660622207409E+03   -0.53407E-08   -0.15278E-08  3617   0.272E-04
DAV:   1    -0.535198891291E+04   -0.53520E+04   -0.50142E-08  5576   0.103E-03
DAV:   2    -0.535198891291E+04   -0.35106E-09   -0.53047E-09  3552   0.609E-04
       N       E                     dE             d eps       ncg     rms
RMM:   1    -0.500029689496E+03   -0.50003E+03   -0.27750E+03  5600   0.498E+02
RMM:   2    -0.634037937267E+03   -0.13401E+03   -0.79597E+02  9887   0.689E+01
RMM:   3    -0.656454727106E+03   -0.22417E+02   -0.10505E+02 10841   0.181E+01
RMM:   4    -0.659984486924E+03   -0.35298E+01   -0.13067E+01 10904   0.593E+00
RMM:   5    -0.660540932491E+03   -0.55645E+00   -0.20906E+00 11357   0.219E+00
RMM:   6    -0.660629319965E+03   -0.88387E-01   -0.36731E-01 11051   0.811E-01
RMM:   7    -0.660640908570E+03   -0.11589E-01   -0.38616E-02 11567   0.290E-01
RMM:   8    -0.660642574158E+03   -0.16656E-02   -0.78927E-03 11436   0.110E-01
RMM:   9    -0.660642808779E+03   -0.23462E-03   -0.78544E-04 11603   0.374E-02
RMM:  10    -0.660642845581E+03   -0.36802E-04   -0.18085E-04 10782   0.144E-02
RMM:  11    -0.660642852636E+03   -0.70555E-05   -0.18718E-05  9067   0.522E-03
RMM:  12    -0.660642853654E+03   -0.10179E-05   -0.53998E-06  7973   0.218E-03
RMM:  13    -0.660642853846E+03   -0.19217E-06   -0.52687E-07  6580   0.849E-04
RMM:  14    -0.660642853874E+03   -0.27957E-07   -0.14653E-07  4759   0.432E-04
RMM:  15    -0.660642853880E+03   -0.52411E-08   -0.15472E-08  3626   0.273E-04
DAV:   1    -0.535203775488E+04   -0.53520E+04   -0.16394E+00  6802   0.623E+00
DAV:   2    -0.535205229723E+04   -0.14542E-01   -0.14542E-01  7864   0.182E+00
DAV:   3    -0.535205284171E+04   -0.54448E-03   -0.54447E-03  8552   0.366E-01
DAV:   4    -0.535205288343E+04   -0.41721E-04   -0.41720E-04  8560   0.796E-02
DAV:   5    -0.535205288700E+04   -0.35754E-05   -0.35752E-05  8792   0.247E-02
DAV:   6    -0.535205288738E+04   -0.38104E-06   -0.38112E-06  7200   0.651E-03
DAV:   7    -0.535205288743E+04   -0.43113E-07   -0.42975E-07  6208   0.239E-03
DAV:   8    -0.535205288743E+04   -0.46630E-08   -0.46247E-08  5304   0.837E-04
       N       E                     dE             d eps       ncg     rms
RMM:   1    -0.499899101857E+03   -0.49990E+03   -0.27738E+03  5599   0.498E+02
RMM:   2    -0.633973480209E+03   -0.13407E+03   -0.79612E+02  9886   0.690E+01
RMM:   3    -0.656468032936E+03   -0.22495E+02   -0.10574E+02 10851   0.181E+01
RMM:   4    -0.659992943399E+03   -0.35249E+01   -0.13016E+01 10901   0.593E+00
RMM:   5    -0.660549023392E+03   -0.55608E+00   -0.21005E+00 11372   0.219E+00
RMM:   6    -0.660637570091E+03   -0.88547E-01   -0.36657E-01 11033   0.809E-01
RMM:   7    -0.660649163099E+03   -0.11593E-01   -0.38510E-02 11589   0.289E-01
RMM:   8    -0.660650824009E+03   -0.16609E-02   -0.78556E-03 11427   0.109E-01
RMM:   9    -0.660651055736E+03   -0.23173E-03   -0.77692E-04 11614   0.372E-02
RMM:  10    -0.660651091894E+03   -0.36158E-04   -0.17844E-04 10727   0.142E-02
RMM:  11    -0.660651098666E+03   -0.67722E-05   -0.18370E-05  9024   0.517E-03
RMM:  12    -0.660651099663E+03   -0.99633E-06   -0.53398E-06  7942   0.216E-03
RMM:  13    -0.660651099849E+03   -0.18674E-06   -0.50447E-07  6589   0.833E-04
RMM:  14    -0.660651099875E+03   -0.26055E-07   -0.13624E-07  4747   0.425E-04
RMM:  15    -0.660651099880E+03   -0.49985E-08   -0.15196E-08  3614   0.272E-04
DAV:   1    -0.535191844269E+04   -0.53519E+04   -0.16335E+00  6695   0.627E+00
DAV:   2    -0.535193372146E+04   -0.15279E-01   -0.15279E-01  7832   0.183E+00
DAV:   3    -0.535193429441E+04   -0.57295E-03   -0.57293E-03  8560   0.371E-01
DAV:   4    -0.535193433614E+04   -0.41726E-04   -0.41724E-04  8528   0.792E-02
DAV:   5    -0.535193433984E+04   -0.37027E-05   -0.37024E-05  8960   0.250E-02
DAV:   6    -0.535193434020E+04   -0.36442E-06   -0.36438E-06  7360   0.614E-03
DAV:   7    -0.535193434024E+04   -0.37292E-07   -0.37501E-07  6104   0.219E-03
DAV:   8    -0.535193434024E+04   -0.40563E-08   -0.39651E-08  5080   0.738E-04
       N       E                     dE             d eps       ncg     rms
RMM:   1    -0.511733707903E+03   -0.51173E+03   -0.25885E+03  5653   0.471E+02
RMM:   2    -0.635828432901E+03   -0.12409E+03   -0.73726E+02 10059   0.684E+01
RMM:   3    -0.656219950047E+03   -0.20392E+02   -0.11442E+02 10869   0.182E+01
RMM:   4    -0.660089249963E+03   -0.38693E+01   -0.14445E+01 11033   0.617E+00
RMM:   5    -0.660752080958E+03   -0.66283E+00   -0.29171E+00 11403   0.234E+00
RMM:   6    -0.660847662028E+03   -0.95581E-01   -0.34225E-01 11069   0.825E-01
RMM:   7    -0.660861997977E+03   -0.14336E-01   -0.59037E-02 11631   0.316E-01
RMM:   8    -0.660863863683E+03   -0.18657E-02   -0.74982E-03 11515   0.114E-01
RMM:   9    -0.660864140027E+03   -0.27634E-03   -0.10990E-03 11813   0.402E-02
RMM:  10    -0.660864182612E+03   -0.42585E-04   -0.19499E-04 10756   0.150E-02
RMM:  11    -0.660864190079E+03   -0.74678E-05   -0.28925E-05  9445   0.557E-03
RMM:  12    -0.660864191282E+03   -0.12031E-05   -0.57633E-06  7806   0.227E-03
RMM:  13    -0.660864191516E+03   -0.23375E-06   -0.90354E-07  6729   0.909E-04
RMM:  14    -0.660864191552E+03   -0.35865E-07   -0.15954E-07  4884   0.441E-04
RMM:  15    -0.660864191559E+03   -0.66167E-08   -0.25881E-08  3657   0.276E-04
DAV:   1    -0.535198891291E+04   -0.53520E+04   -0.50145E-08  5576   0.103E-03
DAV:   2    -0.535198891291E+04   -0.77398E-09   -0.52853E-09  3552   0.609E-04
       N       E                     dE             d eps       ncg     rms
RMM:   1    -0.511896421335E+03   -0.51190E+03   -0.25909E+03  5655   0.472E+02
RMM:   2    -0.635869440039E+03   -0.12397E+03   -0.73687E+02 10064   0.683E+01
RMM:   3    -0.656199676529E+03   -0.20330E+02   -0.11397E+02 10868   0.182E+01
RMM:   4    -0.660056828081E+03   -0.38572E+01   -0.14399E+01 11037   0.616E+00
RMM:   5    -0.660716469730E+03   -0.65964E+00   -0.28865E+00 11384   0.233E+00
RMM:   6    -0.660810973244E+03   -0.94504E-01   -0.33905E-01 11056   0.823E-01
RMM:   7    -0.660825176841E+03   -0.14204E-01   -0.58271E-02 11627   0.315E-01
RMM:   8    -0.660827025161E+03   -0.18483E-02   -0.74716E-03 11487   0.114E-01
RMM:   9    -0.660827302648E+03   -0.27749E-03   -0.11033E-03 11822   0.403E-02
RMM:  10    -0.660827345626E+03   -0.42978E-04   -0.19881E-04 10749   0.149E-02
RMM:  11    -0.660827353074E+03   -0.74480E-05   -0.28076E-05  9511   0.552E-03
RMM:  12    -0.660827354252E+03   -0.11782E-05   -0.57434E-06  7815   0.226E-03
RMM:  13    -0.660827354485E+03   -0.23277E-06   -0.89586E-07  6719   0.907E-04
RMM:  14    -0.660827354521E+03   -0.36118E-07   -0.16220E-07  4887   0.442E-04
RMM:  15    -0.660827354528E+03   -0.66965E-08   -0.26339E-08  3643   0.275E-04
DAV:   1    -0.535202736703E+04   -0.53520E+04   -0.16329E+00  6687   0.627E+00
DAV:   2    -0.535204273781E+04   -0.15371E-01   -0.15371E-01  7848   0.184E+00
DAV:   3    -0.535204330537E+04   -0.56756E-03   -0.56755E-03  8512   0.370E-01
DAV:   4    -0.535204334779E+04   -0.42420E-04   -0.42419E-04  8448   0.800E-02
DAV:   5    -0.535204335179E+04   -0.39972E-05   -0.39972E-05  8968   0.259E-02
DAV:   6    -0.535204335218E+04   -0.38990E-06   -0.38986E-06  7264   0.641E-03
DAV:   7    -0.535204335222E+04   -0.41806E-07   -0.41745E-07  6192   0.237E-03
DAV:   8    -0.535204335223E+04   -0.48649E-08   -0.51012E-08  5232   0.813E-04
       N       E                     dE             d eps       ncg     rms
RMM:   1    -0.511620995039E+03   -0.51162E+03   -0.25891E+03  5652   0.472E+02
RMM:   2    -0.635824200614E+03   -0.12420E+03   -0.73781E+02 10067   0.684E+01
RMM:   3    -0.656175635217E+03   -0.20351E+02   -0.11435E+02 10873   0.182E+01
RMM:   4    -0.660012847882E+03   -0.38372E+01   -0.14239E+01 11026   0.614E+00
RMM:   5    -0.660667352114E+03   -0.65450E+00   -0.28720E+00 11400   0.233E+00
RMM:   6    -0.660761356869E+03   -0.94005E-01   -0.33733E-01 11037   0.821E-01
RMM:   7    -0.660775554209E+03   -0.14197E-01   -0.58076E-02 11644   0.315E-01
RMM:   8    -0.660777405929E+03   -0.18517E-02   -0.74501E-03 11480   0.114E-01
RMM:   9    -0.660777685872E+03   -0.27994E-03   -0.11032E-03 11815   0.403E-02
RMM:  10    -0.660777728837E+03   -0.42965E-04   -0.20133E-04 10767   0.149E-02
RMM:  11    -0.660777736216E+03   -0.73792E-05   -0.27487E-05  9502   0.550E-03
RMM:  12    -0.660777737369E+03   -0.11531E-05   -0.55971E-06  7820   0.225E-03
RMM:  13    -0.660777737599E+03   -0.22973E-06   -0.89795E-07  6718   0.912E-04
RMM:  14    -0.660777737636E+03   -0.36912E-07   -0.16937E-07  4927   0.446E-04
RMM:  15    -0.660777737643E+03   -0.65976E-08   -0.25338E-08  3645   0.275E-04
       N       E                     dE             d eps       ncg     rms
RLQ:   1    -0.162131842919E+02   -0.16213E+02   -0.17357E+03  5520   0.412E+02
RLQ:   2    -0.196571524987E+02   -0.34440E+01   -0.25051E+01 10400   0.123E+01
RLQ:   3    -0.207867179768E+02   -0.11296E+01   -0.52630E+00 10684   0.329E+00
RLQ:   4    -0.209290012840E+02   -0.14228E+00   -0.53869E-01 11224   0.103E+00
RLQ:   5    -0.209514984472E+02   -0.22497E-01   -0.87420E-02 11158   0.370E-01
RLQ:   6    -0.209543225788E+02   -0.28241E-02   -0.10829E-02 10684   0.133E-01
RLQ:   7    -0.209547351088E+02   -0.41253E-03   -0.18921E-03 10877   0.508E-02
RLQ:   8    -0.209547955177E+02   -0.60409E-04   -0.23150E-04 10505   0.179E-02
RLQ:   9    -0.209548039814E+02   -0.84637E-05   -0.37774E-05  9808   0.675E-03
RLQ:  10    -0.209548053096E+02   -0.13281E-05   -0.55948E-06  8336   0.255E-03
RLQ:  11    -0.209548055224E+02   -0.21280E-06   -0.82262E-07  7471   0.102E-03
RLQ:  12    -0.209548055552E+02   -0.32805E-07   -0.15777E-07  5521   0.462E-04
RLQ:  13    -0.209548055605E+02   -0.52756E-08   -0.16530E-08  3770   0.275E-04
DAV:   1    -0.535198489343E+04   -0.53520E+04   -0.16548E+00  6637   0.622E+00
DAV:   2    -0.535199976823E+04   -0.14875E-01   -0.14875E-01  7904   0.183E+00
DAV:   3    -0.535200033820E+04   -0.56997E-03   -0.56996E-03  8472   0.375E-01
DAV:   4    -0.535200038246E+04   -0.44259E-04   -0.44258E-04  8488   0.830E-02
DAV:   5    -0.535200038665E+04   -0.41923E-05   -0.41921E-05  8696   0.263E-02
DAV:   6    -0.535200038708E+04   -0.43052E-06   -0.43054E-06  7624   0.695E-03
DAV:   7    -0.535200038713E+04   -0.42398E-07   -0.42248E-07  6112   0.234E-03
DAV:   8    -0.535200038713E+04   -0.48331E-08   -0.48253E-08  5304   0.824E-04
       N       E                     dE             d eps       ncg     rms
RMM:   1    -0.499835149503E+03   -0.49984E+03   -0.27742E+03  5599   0.498E+02
RMM:   2    -0.633797851524E+03   -0.13396E+03   -0.79507E+02  9889   0.690E+01
RMM:   3    -0.656237864816E+03   -0.22440E+02   -0.10514E+02 10838   0.181E+01
RMM:   4    -0.659776476049E+03   -0.35386E+01   -0.13136E+01 10909   0.595E+00
RMM:   5    -0.660331235454E+03   -0.55476E+00   -0.20679E+00 11367   0.219E+00
RMM:   6    -0.660419338827E+03   -0.88103E-01   -0.37049E-01 11042   0.810E-01
RMM:   7    -0.660430855504E+03   -0.11517E-01   -0.37540E-02 11581   0.288E-01
RMM:   8    -0.660432491192E+03   -0.16357E-02   -0.78803E-03 11446   0.110E-01
RMM:   9    -0.660432724256E+03   -0.23306E-03   -0.77186E-04 11600   0.372E-02
RMM:  10    -0.660432760841E+03   -0.36585E-04   -0.17979E-04 10756   0.143E-02
RMM:  11    -0.660432767817E+03   -0.69765E-05   -0.18552E-05  9052   0.521E-03
RMM:  12    -0.660432768825E+03   -0.10075E-05   -0.53810E-06  7945   0.217E-03
RMM:  13    -0.660432769014E+03   -0.18900E-06   -0.51426E-07  6586   0.843E-04
RMM:  14    -0.660432769041E+03   -0.26821E-07   -0.14023E-07  4784   0.430E-04
RMM:  15    -0.660432769046E+03   -0.49812E-08   -0.15089E-08  3636   0.272E-04
DAV:   1    -0.535198891291E+04   -0.53520E+04   -0.50142E-08  5576   0.103E-03
DAV:   2    -0.535198891291E+04   -0.33742E-09   -0.52931E-09  3552   0.609E-04
       N       E                     dE             d eps       ncg     rms
RMM:   1    -0.500029689496E+03   -0.50003E+03   -0.27750E+03  5600   0.498E+02
RMM:   2    -0.634037937267E+03   -0.13401E+03   -0.79597E+02  9887   0.689E+01
RMM:   3    -0.656454727106E+03   -0.22417E+02   -0.10505E+02 10841   0.181E+01
RMM:   4    -0.659984486924E+03   -0.35298E+01   -0.13067E+01 10904   0.593E+00
RMM:   5    -0.660540932491E+03   -0.55645E+00   -0.20906E+00 11357   0.219E+00
RMM:   6    -0.660629319965E+03   -0.88387E-01   -0.36731E-01 11051   0.811E-01
RMM:   7    -0.660640908570E+03   -0.11589E-01   -0.38616E-02 11567   0.290E-01
RMM:   8    -0.660642574158E+03   -0.16656E-02   -0.78927E-03 11436   0.110E-01
RMM:   9    -0.660642808779E+03   -0.23462E-03   -0.78544E-04 11603   0.374E-02
RMM:  10    -0.660642845581E+03   -0.36802E-04   -0.18085E-04 10782   0.144E-02
RMM:  11    -0.660642852636E+03   -0.70555E-05   -0.18718E-05  9067   0.522E-03
RMM:  12    -0.660642853654E+03   -0.10179E-05   -0.53998E-06  7973   0.218E-03
RMM:  13    -0.660642853846E+03   -0.19217E-06   -0.52687E-07  6580   0.849E-04
RMM:  14    -0.660642853874E+03   -0.27958E-07   -0.14653E-07  4759   0.432E-04
RMM:  15    -0.660642853880E+03   -0.52410E-08   -0.15472E-08  3626   0.273E-04
DAV:   1    -0.535196180937E+04   -0.53520E+04   -0.16548E+00  6634   0.622E+00
DAV:   2    -0.535197668410E+04   -0.14875E-01   -0.14875E-01  7888   0.183E+00
DAV:   3    -0.535197725774E+04   -0.57363E-03   -0.57362E-03  8416   0.376E-01
DAV:   4    -0.535197730242E+04   -0.44684E-04   -0.44683E-04  8496   0.840E-02
DAV:   5    -0.535197730659E+04   -0.41697E-05   -0.41696E-05  8656   0.263E-02
DAV:   6    -0.535197730700E+04   -0.40902E-06   -0.40882E-06  7736   0.686E-03
DAV:   7    -0.535197730704E+04   -0.43083E-07   -0.43249E-07  6144   0.234E-03
DAV:   8    -0.535197730705E+04   -0.55970E-08   -0.54701E-08  5320   0.837E-04
       N       E                     dE             d eps       ncg     rms
RMM:   1    -0.500071646187E+03   -0.50007E+03   -0.27747E+03  5600   0.498E+02
RMM:   2    -0.634193249226E+03   -0.13412E+03   -0.79713E+02  9882   0.690E+01
RMM:   3    -0.656651055183E+03   -0.22458E+02   -0.10528E+02 10841   0.181E+01
RMM:   4    -0.660183967153E+03   -0.35329E+01   -0.13085E+01 10908   0.594E+00
RMM:   5    -0.660739097428E+03   -0.55513E+00   -0.20885E+00 11369   0.219E+00
RMM:   6    -0.660827111626E+03   -0.88014E-01   -0.36446E-01 11037   0.808E-01
RMM:   7    -0.660838662123E+03   -0.11550E-01   -0.38491E-02 11590   0.290E-01
RMM:   8    -0.660840326522E+03   -0.16644E-02   -0.79934E-03 11431   0.110E-01
RMM:   9    -0.660840561969E+03   -0.23545E-03   -0.78373E-04 11623   0.374E-02
RMM:  10    -0.660840599222E+03   -0.37254E-04   -0.18266E-04 10766   0.144E-02
RMM:  11    -0.660840606316E+03   -0.70940E-05   -0.18392E-05  9036   0.521E-03
RMM:  12    -0.660840607339E+03   -0.10233E-05   -0.55162E-06  7943   0.218E-03
RMM:  13    -0.660840607533E+03   -0.19324E-06   -0.53141E-07  6594   0.850E-04
RMM:  14    -0.660840607561E+03   -0.28038E-07   -0.14687E-07  4760   0.431E-04
RMM:  15    -0.660840607566E+03   -0.52611E-08   -0.14904E-08  3619   0.272E-04
DAV:   1    -0.535191844269E+04   -0.53519E+04   -0.16335E+00  6695   0.627E+00
DAV:   2    -0.535193372146E+04   -0.15279E-01   -0.15279E-01  7832   0.183E+00
DAV:   3    -0.535193429441E+04   -0.57295E-03   -0.57293E-03  8560   0.371E-01
DAV:   4    -0.535193433614E+04   -0.41726E-04   -0.41724E-04  8528   0.792E-02
DAV:   5    -0.535193433984E+04   -0.37026E-05   -0.37024E-05  8960   0.250E-02
DAV:   6    -0.535193434020E+04   -0.36444E-06   -0.36438E-06  7360   0.614E-03
DAV:   7    -0.535193434024E+04   -0.37539E-07   -0.37676E-07  6112   0.219E-03
DAV:   8    -0.535193434024E+04   -0.39136E-08   -0.37877E-08  5056   0.731E-04
       N       E                     dE             d eps       ncg     rms
RMM:   1    -0.517573519858E+03   -0.51757E+03   -0.25414E+03  5684   0.463E+02
RMM:   2    -0.638222157876E+03   -0.12065E+03   -0.71852E+02 10033   0.675E+01
RMM:   3    -0.656789391588E+03   -0.18567E+02   -0.10516E+02 10758   0.177E+01
RMM:   4    -0.660494291008E+03   -0.37049E+01   -0.13809E+01 11098   0.601E+00
RMM:   5    -0.661135409317E+03   -0.64112E+00   -0.22632E+00 11230   0.218E+00
RMM:   6    -0.661217367175E+03   -0.81958E-01   -0.32535E-01 11194   0.790E-01
RMM:   7    -0.661229639385E+03   -0.12272E-01   -0.47721E-02 11458   0.293E-01
RMM:   8    -0.661231200468E+03   -0.15611E-02   -0.64734E-03 11449   0.108E-01
RMM:   9    -0.661231470379E+03   -0.26991E-03   -0.99663E-04 11636   0.403E-02
RMM:  10    -0.661231512281E+03   -0.41902E-04   -0.19666E-04 10894   0.154E-02
RMM:  11    -0.661231519900E+03   -0.76190E-05   -0.24269E-05  9380   0.546E-03
RMM:  12    -0.661231520938E+03   -0.10377E-05   -0.48318E-06  7884   0.217E-03
RMM:  13    -0.661231521125E+03   -0.18726E-06   -0.59062E-07  6548   0.822E-04
RMM:  14    -0.661231521148E+03   -0.22345E-07   -0.89303E-08  4744   0.399E-04
RMM:  15    -0.661231521151E+03   -0.38723E-08   -0.14779E-08  3537   0.262E-04
DAV:   1    -0.535198891291E+04   -0.53520E+04   -0.50140E-08  5576   0.103E-03
DAV:   2    -0.535198891291E+04   -0.40382E-09   -0.52918E-09  3552   0.609E-04
       N       E                     dE             d eps       ncg     rms
RMM:   1    -0.517369078559E+03   -0.51737E+03   -0.25394E+03  5681   0.463E+02
RMM:   2    -0.638167497720E+03   -0.12080E+03   -0.71897E+02 10032   0.675E+01
RMM:   3    -0.656733831836E+03   -0.18566E+02   -0.10512E+02 10747   0.177E+01
RMM:   4    -0.660454289503E+03   -0.37205E+01   -0.13858E+01 11112   0.602E+00
RMM:   5    -0.661097836407E+03   -0.64355E+00   -0.22824E+00 11200   0.218E+00
RMM:   6    -0.661180614328E+03   -0.82778E-01   -0.32931E-01 11219   0.793E-01
RMM:   7    -0.661192997402E+03   -0.12383E-01   -0.47688E-02 11452   0.293E-01
RMM:   8    -0.661194555945E+03   -0.15585E-02   -0.65369E-03 11459   0.107E-01
RMM:   9    -0.661194823090E+03   -0.26715E-03   -0.97274E-04 11606   0.399E-02
RMM:  10    -0.661194864324E+03   -0.41234E-04   -0.19395E-04 10879   0.154E-02
RMM:  11    -0.661194871908E+03   -0.75837E-05   -0.23918E-05  9361   0.547E-03
RMM:  12    -0.661194872936E+03   -0.10283E-05   -0.48249E-06  7876   0.217E-03
RMM:  13    -0.661194873127E+03   -0.19110E-06   -0.57433E-07  6528   0.818E-04
RMM:  14    -0.661194873150E+03   -0.22947E-07   -0.92190E-08  4735   0.400E-04
RMM:  15    -0.661194873154E+03   -0.38668E-08   -0.14472E-08  3519   0.261E-04
DAV:   1    -0.535202736703E+04   -0.53520E+04   -0.16329E+00  6687   0.627E+00
DAV:   2    -0.535204273781E+04   -0.15371E-01   -0.15371E-01  7848   0.184E+00
DAV:   3    -0.535204330537E+04   -0.56756E-03   -0.56755E-03  8512   0.370E-01
DAV:   4    -0.535204334779E+04   -0.42420E-04   -0.42419E-04  8448   0.800E-02
DAV:   5    -0.535204335179E+04   -0.39973E-05   -0.39972E-05  8968   0.259E-02
DAV:   6    -0.535204335218E+04   -0.38997E-06   -0.38987E-06  7264   0.641E-03
DAV:   7    -0.535204335222E+04   -0.41504E-07   -0.41745E-07  6184   0.237E-03
DAV:   8    -0.535204335223E+04   -0.53642E-08   -0.51004E-08  5232   0.814E-04
       N       E                     dE             d eps       ncg     rms
RMM:   1    -0.517234065076E+03   -0.51723E+03   -0.25385E+03  5680   0.463E+02
RMM:   2    -0.638086348969E+03   -0.12085E+03   -0.71907E+02 10030   0.676E+01
RMM:   3    -0.656673559337E+03   -0.18587E+02   -0.10513E+02 10751   0.177E+01
RMM:   4    -0.660407789896E+03   -0.37342E+01   -0.13935E+01 11113   0.603E+00
RMM:   5    -0.661048852155E+03   -0.64106E+00   -0.22260E+00 11205   0.217E+00
RMM:   6    -0.661131148771E+03   -0.82297E-01   -0.33244E-01 11214   0.794E-01
RMM:   7    -0.661143599261E+03   -0.12450E-01   -0.47235E-02 11444   0.292E-01
RMM:   8    -0.661145167595E+03   -0.15683E-02   -0.67490E-03 11447   0.108E-01
RMM:   9    -0.661145434679E+03   -0.26708E-03   -0.95295E-04 11603   0.398E-02
RMM:  10    -0.661145475723E+03   -0.41044E-04   -0.19549E-04 10873   0.154E-02
RMM:  11    -0.661145483432E+03   -0.77094E-05   -0.23588E-05  9357   0.545E-03
RMM:  12    -0.661145484432E+03   -0.10000E-05   -0.46578E-06  7891   0.216E-03
RMM:  13    -0.661145484624E+03   -0.19233E-06   -0.59650E-07  6528   0.827E-04
RMM:  14    -0.661145484650E+03   -0.25216E-07   -0.10857E-07  4758   0.411E-04
RMM:  15    -0.661145484654E+03   -0.43376E-08   -0.15970E-08  3541   0.264E-04
       N       E                     dE             d eps       ncg     rms
RLQ:   1    -0.162156107237E+02   -0.16216E+02   -0.17357E+03  5520   0.410E+02
RLQ:   2    -0.196820533019E+02   -0.34664E+01   -0.25363E+01 10371   0.123E+01
RLQ:   3    -0.208428486113E+02   -0.11608E+01   -0.55149E+00 10777   0.329E+00
RLQ:   4    -0.209866979556E+02   -0.14385E+00   -0.53298E-01 11211   0.101E+00
RLQ:   5    -0.210090338887E+02   -0.22336E-01   -0.88055E-02 11238   0.367E-01
RLQ:   6    -0.210119753501E+02   -0.29415E-02   -0.12528E-02 10824   0.133E-01
RLQ:   7    -0.210124009739E+02   -0.42562E-03   -0.17241E-03 10884   0.496E-02
RLQ:   8    -0.210124582739E+02   -0.57300E-04   -0.24528E-04 10498   0.180E-02
RLQ:   9    -0.210124667899E+02   -0.85160E-05   -0.34419E-05  9585   0.683E-03
RLQ:  10    -0.210124681820E+02   -0.13921E-05   -0.67466E-06  8359   0.266E-03
RLQ:  11    -0.210124684079E+02   -0.22586E-06   -0.74651E-07  7397   0.103E-03
RLQ:  12    -0.210124684417E+02   -0.33795E-07   -0.17748E-07  5605   0.474E-04
RLQ:  13    -0.210124684470E+02   -0.53002E-08   -0.14382E-08  3747   0.275E-04
DAV:   1    -0.535198489343E+04   -0.53520E+04   -0.16548E+00  6637   0.622E+00
DAV:   2    -0.535199976823E+04   -0.14875E-01   -0.14875E-01  7904   0.183E+00
DAV:   3    -0.535200033820E+04   -0.56997E-03   -0.56996E-03  8472   0.375E-01
DAV:   4    -0.535200038246E+04   -0.44259E-04   -0.44258E-04  8488   0.830E-02
DAV:   5    -0.535200038665E+04   -0.41920E-05   -0.41921E-05  8696   0.263E-02
DAV:   6    -0.535200038708E+04   -0.43041E-06   -0.43053E-06  7616   0.695E-03
DAV:   7    -0.535200038713E+04   -0.42422E-07   -0.42248E-07  6112   0.234E-03
DAV:   8    -0.535200038713E+04   -0.47012E-08   -0.48053E-08  5296   0.825E-04
       N       E                     dE             d eps       ncg     rms
RMM:   1    -0.511808820671E+03   -0.51181E+03   -0.25904E+03  5654   0.472E+02
RMM:   2    -0.635844929910E+03   -0.12404E+03   -0.73718E+02 10063   0.684E+01
RMM:   3    -0.656198078382E+03   -0.20353E+02   -0.11421E+02 10872   0.182E+01
RMM:   4    -0.660044492489E+03   -0.38464E+01   -0.14355E+01 11032   0.615E+00
RMM:   5    -0.660700602909E+03   -0.65611E+00   -0.28683E+00 11392   0.233E+00
RMM:   6    -0.660795332823E+03   -0.94730E-01   -0.34185E-01 11044   0.824E-01
RMM:   7    -0.660809613671E+03   -0.14281E-01   -0.58349E-02 11643   0.316E-01
RMM:   8    -0.660811465430E+03   -0.18518E-02   -0.74557E-03 11485   0.114E-01
RMM:   9    -0.660811744077E+03   -0.27865E-03   -0.11083E-03 11808   0.403E-02
RMM:  10    -0.660811786410E+03   -0.42332E-04   -0.19565E-04 10763   0.148E-02
RMM:  11    -0.660811793778E+03   -0.73687E-05   -0.27641E-05  9516   0.550E-03
RMM:  12    -0.660811794931E+03   -0.11531E-05   -0.56079E-06  7820   0.225E-03
RMM:  13    -0.660811795159E+03   -0.22755E-06   -0.88786E-07  6734   0.911E-04
RMM:  14    -0.660811795195E+03   -0.36496E-07   -0.16765E-07  4893   0.446E-04
RMM:  15    -0.660811795202E+03   -0.68019E-08   -0.26329E-08  3651   0.276E-04
DAV:   1    -0.535198891291E+04   -0.53520E+04   -0.50143E-08  5576   0.103E-03
DAV:   2    -0.535198891291E+04   -0.38472E-09   -0.53075E-09  3552   0.609E-04
       N       E                     dE             d eps       ncg     rms
RMM:   1    -0.511896421335E+03   -0.51190E+03   -0.25909E+03  5655   0.472E+02
RMM:   2    -0.635869440039E+03   -0.12397E+03   -0.73687E+02 10064   0.683E+01
RMM:   3    -0.656199676529E+03   -0.20330E+02   -0.11397E+02 10868   0.182E+01
RMM:   4    -0.660056828081E+03   -0.38572E+01   -0.14399E+01 11037   0.616E+00
RMM:   5    -0.660716469730E+03   -0.65964E+00   -0.28865E+00 11384   0.233E+00
RMM:   6    -0.660810973244E+03   -0.94504E-01   -0.33905E-01 11056   0.823E-01
RMM:   7    -0.660825176841E+03   -0.14204E-01   -0.58271E-02 11627   0.315E-01
RMM:   8    -0.660827025161E+03   -0.18483E-02   -0.74716E-03 11487   0.114E-01
RMM:   9    -0.660827302648E+03   -0.27749E-03   -0.11033E-03 11822   0.403E-02
RMM:  10    -0.660827345626E+03   -0.42978E-04   -0.19881E-04 10749   0.149E-02
RMM:  11    -0.660827353074E+03   -0.74480E-05   -0.28076E-05  9511   0.552E-03
RMM:  12    -0.660827354252E+03   -0.11782E-05   -0.57434E-06  7815   0.226E-03
RMM:  13    -0.660827354485E+03   -0.23277E-06   -0.89586E-07  6719   0.907E-04
RMM:  14    -0.660827354521E+03   -0.36118E-07   -0.16220E-07  4887   0.442E-04
RMM:  15    -0.660827354528E+03   -0.66965E-08   -0.26339E-08  3643   0.275E-04
DAV:   1    -0.535196180937E+04   -0.53520E+04   -0.16548E+00  6634   0.622E+00
DAV:   2    -0.535197668410E+04   -0.14875E-01   -0.14875E-01  7888   0.183E+00
DAV:   3    -0.535197725774E+04   -0.57363E-03   -0.57362E-03  8416   0.376E-01
DAV:   4    -0.535197730242E+04   -0.44684E-04   -0.44683E-04  8496   0.840E-02
DAV:   5    -0.535197730659E+04   -0.41697E-05   -0.41696E-05  8656   0.263E-02
DAV:   6    -0.535197730700E+04   -0.40909E-06   -0.40882E-06  7736   0.686E-03
DAV:   7    -0.535197730704E+04   -0.43066E-07   -0.43248E-07  6144   0.234E-03
DAV:   8    -0.535197730705E+04   -0.54888E-08   -0.54711E-08  5320   0.837E-04
       N       E                     dE             d eps       ncg     rms
RMM:   1    -0.511805966878E+03   -0.51181E+03   -0.25899E+03  5654   0.472E+02
RMM:   2    -0.635834707458E+03   -0.12403E+03   -0.73704E+02 10062   0.684E+01
RMM:   3    -0.656189720504E+03   -0.20355E+02   -0.11413E+02 10867   0.182E+01
RMM:   4    -0.660054606090E+03   -0.38649E+01   -0.14416E+01 11027   0.617E+00
RMM:   5    -0.660717937961E+03   -0.66333E+00   -0.29096E+00 11398   0.234E+00
RMM:   6    -0.660812995424E+03   -0.95057E-01   -0.34080E-01 11055   0.823E-01
RMM:   7    -0.660827206118E+03   -0.14211E-01   -0.58483E-02 11640   0.315E-01
RMM:   8    -0.660829047966E+03   -0.18418E-02   -0.73454E-03 11492   0.113E-01
RMM:   9    -0.660829323579E+03   -0.27561E-03   -0.10911E-03 11819   0.402E-02
RMM:  10    -0.660829366472E+03   -0.42893E-04   -0.19851E-04 10755   0.149E-02
RMM:  11    -0.660829373933E+03   -0.74607E-05   -0.28461E-05  9506   0.554E-03
RMM:  12    -0.660829375124E+03   -0.11910E-05   -0.58111E-06  7819   0.226E-03
RMM:  13    -0.660829375356E+03   -0.23237E-06   -0.88415E-07  6729   0.899E-04
RMM:  14    -0.660829375391E+03   -0.34753E-07   -0.14854E-07  4868   0.433E-04
RMM:  15    -0.660829375397E+03   -0.62990E-08   -0.24811E-08  3606   0.273E-04
DAV:   1    -0.535190969702E+04   -0.53519E+04   -0.16397E+00  6810   0.623E+00
DAV:   2    -0.535192421537E+04   -0.14518E-01   -0.14518E-01  7864   0.182E+00
DAV:   3    -0.535192475972E+04   -0.54434E-03   -0.54433E-03  8520   0.365E-01
DAV:   4    -0.535192480172E+04   -0.42000E-04   -0.41999E-04  8528   0.800E-02
DAV:   5    -0.535192480538E+04   -0.36629E-05   -0.36630E-05  8768   0.249E-02
DAV:   6    -0.535192480578E+04   -0.40528E-06   -0.40529E-06  7288   0.666E-03
DAV:   7    -0.535192480583E+04   -0.42369E-07   -0.42283E-07  6208   0.238E-03
DAV:   8    -0.535192480583E+04   -0.43619E-08   -0.43347E-08  5272   0.819E-04
       N       E                     dE             d eps       ncg     rms
RMM:   1    -0.517308532451E+03   -0.51731E+03   -0.25382E+03  5680   0.463E+02
RMM:   2    -0.638157651680E+03   -0.12085E+03   -0.71901E+02 10034   0.676E+01
RMM:   3    -0.656762856153E+03   -0.18605E+02   -0.10538E+02 10755   0.177E+01
RMM:   4    -0.660498392479E+03   -0.37355E+01   -0.13919E+01 11106   0.603E+00
RMM:   5    -0.661144001784E+03   -0.64561E+00   -0.22638E+00 11221   0.218E+00
RMM:   6    -0.661226463201E+03   -0.82461E-01   -0.33079E-01 11212   0.794E-01
RMM:   7    -0.661238896982E+03   -0.12434E-01   -0.48006E-02 11443   0.293E-01
RMM:   8    -0.661240469350E+03   -0.15724E-02   -0.65891E-03 11466   0.108E-01
RMM:   9    -0.661240735694E+03   -0.26634E-03   -0.97710E-04 11622   0.400E-02
RMM:  10    -0.661240777053E+03   -0.41359E-04   -0.19493E-04 10859   0.153E-02
RMM:  11    -0.661240784536E+03   -0.74837E-05   -0.23443E-05  9389   0.544E-03
RMM:  12    -0.661240785544E+03   -0.10076E-05   -0.47138E-06  7891   0.216E-03
RMM:  13    -0.661240785727E+03   -0.18345E-06   -0.55953E-07  6588   0.814E-04
RMM:  14    -0.661240785749E+03   -0.21482E-07   -0.88959E-08  4774   0.396E-04
RMM:  15    -0.661240785753E+03   -0.36174E-08   -0.12737E-08  3506   0.259E-04
DAV:   1    -0.535198891291E+04   -0.53520E+04   -0.50142E-08  5576   0.103E-03
DAV:   2    -0.535198891291E+04   -0.50750E-09   -0.52860E-09  3552   0.609E-04
       N       E                     dE             d eps       ncg     rms
RMM:   1    -0.517369078559E+03   -0.51737E+03   -0.25394E+03  5681   0.463E+02
RMM:   2    -0.638167497720E+03   -0.12080E+03   -0.71897E+02 10032   0.675E+01
RMM:   3    -0.656733831836E+03   -0.18566E+02   -0.10512E+02 10747   0.177E+01
RMM:   4    -0.660454289503E+03   -0.37205E+01   -0.13858E+01 11112   0.602E+00
RMM:   5    -0.661097836407E+03   -0.64355E+00   -0.22824E+00 11200   0.218E+00
RMM:   6    -0.661180614328E+03   -0.82778E-01   -0.32931E-01 11219   0.793E-01
RMM:   7    -0.661192997402E+03   -0.12383E-01   -0.47688E-02 11452   0.293E-01
RMM:   8    -0.661194555945E+03   -0.15585E-02   -0.65369E-03 11459   0.107E-01
RMM:   9    -0.661194823090E+03   -0.26715E-03   -0.97274E-04 11606   0.399E-02
RMM:  10    -0.661194864324E+03   -0.41234E-04   -0.19395E-04 10879   0.154E-02
RMM:  11    -0.661194871908E+03   -0.75837E-05   -0.23918E-05  9361   0.547E-03
RMM:  12    -0.661194872936E+03   -0.10283E-05   -0.48249E-06  7876   0.217E-03
RMM:  13    -0.661194873127E+03   -0.19110E-06   -0.57433E-07  6528   0.818E-04
RMM:  14    -0.661194873150E+03   -0.22947E-07   -0.92190E-08  4735   0.400E-04
RMM:  15    -0.661194873154E+03   -0.38671E-08   -0.14472E-08  3519   0.261E-04
DAV:   1    -0.535203775488E+04   -0.53520E+04   -0.16394E+00  6802   0.623E+00
DAV:   2    -0.535205229723E+04   -0.14542E-01   -0.14542E-01  7864   0.182E+00
DAV:   3    -0.535205284171E+04   -0.54448E-03   -0.54447E-03  8552   0.366E-01
DAV:   4    -0.535205288343E+04   -0.41721E-04   -0.41720E-04  8560   0.796E-02
DAV:   5    -0.535205288700E+04   -0.35754E-05   -0.35752E-05  8792   0.247E-02
DAV:   6    -0.535205288738E+04   -0.38073E-06   -0.38112E-06  7200   0.651E-03
DAV:   7    -0.535205288743E+04   -0.43183E-07   -0.42988E-07  6216   0.239E-03
DAV:   8    -0.535205288743E+04   -0.48731E-08   -0.46150E-08  5296   0.835E-04
       N       E                     dE             d eps       ncg     rms
RMM:   1    -0.517443626951E+03   -0.51744E+03   -0.25412E+03  5683   0.463E+02
RMM:   2    -0.638111197928E+03   -0.12067E+03   -0.71847E+02 10028   0.675E+01
RMM:   3    -0.656690521655E+03   -0.18579E+02   -0.10511E+02 10747   0.177E+01
RMM:   4    -0.660399304375E+03   -0.37088E+01   -0.13843E+01 11102   0.602E+00
RMM:   5    -0.661038884866E+03   -0.63958E+00   -0.22494E+00 11208   0.218E+00
RMM:   6    -0.661121082417E+03   -0.82198E-01   -0.32914E-01 11203   0.793E-01
RMM:   7    -0.661133460627E+03   -0.12378E-01   -0.48266E-02 11463   0.293E-01
RMM:   8    -0.661135026159E+03   -0.15655E-02   -0.65311E-03 11449   0.107E-01
RMM:   9    -0.661135289867E+03   -0.26371E-03   -0.95780E-04 11625   0.397E-02
RMM:  10    -0.661135330227E+03   -0.40361E-04   -0.18957E-04 10878   0.152E-02
RMM:  11    -0.661135337748E+03   -0.75202E-05   -0.23457E-05  9339   0.540E-03
RMM:  12    -0.661135338748E+03   -0.10008E-05   -0.46745E-06  7856   0.214E-03
RMM:  13    -0.661135338939E+03   -0.19083E-06   -0.57739E-07  6527   0.819E-04
RMM:  14    -0.661135338963E+03   -0.23433E-07   -0.96900E-08  4685   0.404E-04
RMM:  15    -0.661135338967E+03   -0.40300E-08   -0.15129E-08  3546   0.264E-04
       N       E                     dE             d eps       ncg     rms
RLQ:   1    -0.159904240916E+02   -0.15990E+02   -0.17217E+03  5520   0.403E+02
RLQ:   2    -0.194453300575E+02   -0.34549E+01   -0.25010E+01 10297   0.121E+01
RLQ:   3    -0.205702875025E+02   -0.11250E+01   -0.52794E+00 10761   0.321E+00
RLQ:   4    -0.206990612139E+02   -0.12877E+00   -0.48160E-01 11168   0.979E-01
RLQ:   5    -0.207190783311E+02   -0.20017E-01   -0.96460E-02 11183   0.370E-01
RLQ:   6    -0.207222588958E+02   -0.31806E-02   -0.11247E-02 10839   0.138E-01
RLQ:   7    -0.207228215977E+02   -0.56270E-03   -0.30129E-03 10959   0.537E-02
RLQ:   8    -0.207228917728E+02   -0.70175E-04   -0.22629E-04 10389   0.183E-02
RLQ:   9    -0.207229023961E+02   -0.10623E-04   -0.57334E-05  9532   0.693E-03
RLQ:  10    -0.207229038125E+02   -0.14163E-05   -0.52333E-06  8102   0.249E-03
RLQ:  11    -0.207229040098E+02   -0.19737E-06   -0.75695E-07  7462   0.974E-04
RLQ:  12    -0.207229040394E+02   -0.29521E-07   -0.13193E-07  5459   0.443E-04
RLQ:  13    -0.207229040440E+02   -0.46652E-08   -0.15449E-08  3671   0.271E-04
