 vasp.6.2.1 16May21 (build Jan  3 2022 11:18:50) complex                         
 executed on             LinuxGNU date 2023.01.27  10:53:09
 running    1 mpi-ranks, with    1 threads/rank
 distrk:  each k-point on    1 cores,    1 groups
 distr:  one band on NCORE=   1 cores,    1 groups


--------------------------------------------------------------------------------------------------------


 INCAR:
   ISTART = 0
   ISMEAR = 0
   SIGMA = 0.01
   ENCUT = 550
   PREC = N
   LREAL = A
   EDIFF = 1e-8
   LCHIMAG = .TRUE.	
   DQ = 0.003
   ICHIBARE = 1
   LEFG = .TRUE.
   QUAD_EFG = 104 -320 -25.58 -94.2

 POTCAR:    PAW_PBE Na_sv_GW 11May2015            
 POTCAR:    PAW_PBE Nb_sv_GW 05Dec2013            
 POTCAR:    PAW_PBE O_s_GW 10Jan2007              
 POTCAR:    PAW_PBE F_GW 21Dec2007                
 POTCAR:    PAW_PBE Na_sv_GW 11May2015            
   SHA256 =  7aca660ab3bfaee19d1ee7a682571aefe7e2df9c5a478cbc4ca048f133583603 Na_sv_GW/POTCAR       
   COPYR  = (c) Copyright 11May2015 Georg Kresse                                                    
   COPYR  = This file is part of the software VASP. Any use, copying, and all other rights are regul
   COPYR  = If you do not have a valid VASP license, you may not use, copy or distribute this file. 
   VRHFIN =Na: 2s2p3s                                                                               
   LEXCH  = PE                                                                                      
   EATOM  =  1305.7875 eV,   95.9727 Ry                                                             
                                                                                                    
   TITEL  = PAW_PBE Na_sv_GW 11May2015                                                              
   LULTRA =        F    use ultrasoft PP ?                                                          
   IUNSCR =        1    unscreen: 0-lin 1-nonlin 2-no                                               
   RPACOR =    1.800    partial core radius                                                         
   POMASS =   22.990; ZVAL   =    9.000    mass and valenz                                          
   RCORE  =    2.200    outmost cutoff radius                                                       
   RWIGS  =    2.200; RWIGS  =    1.164    wigner-seitz radius (au A)                               
   ENMAX  =  372.853; ENMIN  =  279.639 eV                                                          
   RCLOC  =    1.108    cutoff for local pot                                                        
   LCOR   =        T    correct aug charges                                                         
   LPAW   =        T    paw PP                                                                      
   EAUG   =  536.357                                                                                
   RMAX   =    2.245    core radius for proj-oper                                                   
   RAUG   =    1.300    factor for augmentation sphere                                              
   RDEP   =    2.259    radius for radial grids                                                     
   RDEPT  =    1.800    core radius for aug-charge                                                  
                                                                                                    
   Atomic configuration                                                                             
    6 entries                                                                                       
     n  l   j            E        occ.                                                              
     1  0  0.50     -1035.8704   2.0000                                                             
     2  0  0.50       -58.9175   2.0000                                                             
     2  1  1.50       -30.8193   6.0000                                                             
     3  1  1.50        -1.4789   1.0000                                                             
     3  2  1.50        -0.7184   0.0000                                                             
     4  3  2.50        -1.3606   0.0000                                                             
   Description                                                                                      
     l       E           TYP  RCUT    TYP  RCUT                                                     
     0    -58.9175350     23  1.400                                                                 
     0    108.8466080     23  1.400                                                                 
     1    -30.8192593     23  1.650                                                                 
     1     -1.4788505     23  2.200                                                                 
     1     81.6349560     23  2.200                                                                 
     2     20.4087390     23  2.200                                                                 
     2     54.4233040     23  2.200                                                                 
  local pseudopotential read in
  partial core-charges read in
  partial kinetic energy density read in
  kinetic energy density of atom read in
  atomic valenz-charges read in
  non local Contribution for L=           0  read in
    real space projection operators read in
  non local Contribution for L=           0  read in
    real space projection operators read in
  non local Contribution for L=           1  read in
    real space projection operators read in
  non local Contribution for L=           1  read in
    real space projection operators read in
  non local Contribution for L=           1  read in
    real space projection operators read in
  non local Contribution for L=           2  read in
    real space projection operators read in
  non local Contribution for L=           2  read in
    real space projection operators read in
    PAW grid and wavefunctions read in

   number of l-projection  operators is LMAX  =           7
   number of lm-projection operators is LMMAX =          21

 POTCAR:    PAW_PBE Nb_sv_GW 05Dec2013            
   SHA256 =  92555312d9ac833af0561e40fc4a76e56d71d4d09d8a06650f27d1c6e90b59b6 Nb_sv_GW/POTCAR       
   COPYR  = (c) Copyright 05Dec2013 Georg Kresse                                                    
   COPYR  = This file is part of the software VASP. Any use, copying, and all other rights are regul
   COPYR  = If you do not have a valid VASP license, you may not use, copy or distribute this file. 
   VRHFIN =Nb: s1d4                                                                                 
   LEXCH  = PE                                                                                      
   EATOM  =  1553.9121 eV,  114.2093 Ry                                                             
                                                                                                    
   TITEL  = PAW_PBE Nb_sv_GW 05Dec2013                                                              
   LULTRA =        F    use ultrasoft PP ?                                                          
   IUNSCR =        1    unscreen: 0-lin 1-nonlin 2-no                                               
   RPACOR =    2.000    partial core radius                                                         
   POMASS =   92.910; ZVAL   =   13.000    mass and valenz                                          
   RCORE  =    2.100    outmost cutoff radius                                                       
   RWIGS  =    2.100; RWIGS  =    1.111    wigner-seitz radius (au A)                               
   ENMAX  =  353.872; ENMIN  =  265.404 eV                                                          
   RCLOC  =    1.504    cutoff for local pot                                                        
   LCOR   =        T    correct aug charges                                                         
   LPAW   =        T    paw PP                                                                      
   EAUG   =  985.604                                                                                
   DEXC   =    0.000                                                                                
   RMAX   =    2.143    core radius for proj-oper                                                   
   RAUG   =    1.300    factor for augmentation sphere                                              
   RDEP   =    2.156    radius for radial grids                                                     
   RDEPT  =    1.659    core radius for aug-charge                                                  
                                                                                                    
   Atomic configuration                                                                             
   12 entries                                                                                       
     n  l   j            E        occ.                                                              
     1  0  0.50    -18803.5055   2.0000                                                             
     2  0  0.50     -2628.3975   2.0000                                                             
     2  1  1.50     -2346.5263   6.0000                                                             
     3  0  0.50      -437.0036   2.0000                                                             
     3  1  1.50      -344.8858   6.0000                                                             
     3  2  2.50      -194.3725  10.0000                                                             
     4  0  0.50       -56.5884   2.0000                                                             
     4  0  0.50       -59.8656   0.0000                                                             
     4  1  1.50       -32.8152   6.0000                                                             
     4  1  1.50       -38.0963   0.0000                                                             
     4  2  2.50        -1.9113   5.0000                                                             
     4  3  2.50        -1.3606   0.0000                                                             
   Description                                                                                      
     l       E           TYP  RCUT    TYP  RCUT                                                     
     0    -56.5884230     23  1.300                                                                 
     0    -59.8656344     23  1.300                                                                 
     1    -32.8152291     23  1.800                                                                 
     1    -38.0963128     23  1.800                                                                 
     1     54.4233040     23  1.800                                                                 
     2     -1.9112974     23  2.000                                                                 
     2     -6.8029130     23  2.000                                                                 
     2    136.0582600     23  2.000                                                                 
     3     13.6058260     23  2.100                                                                 
     3     81.6349560     23  2.100                                                                 
  local pseudopotential read in
  partial core-charges read in
  partial kinetic energy density read in
  kinetic energy density of atom read in
  atomic valenz-charges read in
  non local Contribution for L=           0  read in
    real space projection operators read in
  non local Contribution for L=           0  read in
    real space projection operators read in
  non local Contribution for L=           1  read in
    real space projection operators read in
  non local Contribution for L=           1  read in
    real space projection operators read in
  non local Contribution for L=           1  read in
    real space projection operators read in
  non local Contribution for L=           2  read in
    real space projection operators read in
  non local Contribution for L=           2  read in
    real space projection operators read in
  non local Contribution for L=           2  read in
    real space projection operators read in
  non local Contribution for L=           3  read in
    real space projection operators read in
  non local Contribution for L=           3  read in
    real space projection operators read in
    PAW grid and wavefunctions read in

   number of l-projection  operators is LMAX  =          10
   number of lm-projection operators is LMMAX =          40

 POTCAR:    PAW_PBE O_s_GW 10Jan2007              
   SHA256 =  8479399bb3502b2838d2b23234b8597ed1f898a5a7f592e6c46d7b1ca5096bfd O_s_GW/POTCAR         
   COPYR  = (c) Copyright 10Jan2007 Georg Kresse                                                    
   COPYR  = This file is part of the software VASP. Any use, copying, and all other rights are regul
   COPYR  = If you do not have a valid VASP license, you may not use, copy or distribute this file. 
   VRHFIN =O: s2p4                                                                                  
   LEXCH  = PE                                                                                      
   EATOM  =   432.3788 eV,   31.7789 Ry                                                             
                                                                                                    
   TITEL  = PAW_PBE O_s_GW 10Jan2007                                                                
   LULTRA =        F    use ultrasoft PP ?                                                          
   IUNSCR =        0    unscreen: 0-lin 1-nonlin 2-no                                               
   RPACOR =    0.000    partial core radius                                                         
   POMASS =   16.000; ZVAL   =    6.000    mass and valenz                                          
   RCORE  =    1.700    outmost cutoff radius                                                       
   RWIGS  =    1.800; RWIGS  =    0.953    wigner-seitz radius (au A)                               
   ENMAX  =  334.664; ENMIN  =  250.998 eV                                                          
   ICORE  =        2    local potential                                                             
   LCOR   =        T    correct aug charges                                                         
   LPAW   =        T    paw PP                                                                      
   EAUG   =  468.659                                                                                
   DEXC   =    0.000                                                                                
   RMAX   =    1.737    core radius for proj-oper                                                   
   RAUG   =    1.300    factor for augmentation sphere                                              
   RDEP   =    1.761    radius for radial grids                                                     
   RDEPT  =    1.463    core radius for aug-charge                                                  
                                                                                                    
   Atomic configuration                                                                             
    4 entries                                                                                       
     n  l   j            E        occ.                                                              
     1  0  0.50      -514.6923   2.0000                                                             
     2  0  0.50       -23.9615   2.0000                                                             
     2  1  0.50        -9.0305   4.0000                                                             
     3  2  1.50        -9.5241   0.0000                                                             
   Description                                                                                      
     l       E           TYP  RCUT    TYP  RCUT                                                     
     0    -23.9615316     23  1.400                                                                 
     0     95.2407820     23  1.400                                                                 
     1     -9.0304908     23  1.700                                                                 
     1    -20.4087390     23  1.700                                                                 
     1    108.8466080     23  1.700                                                                 
     2      6.8029130      7  1.500                                                                 
  local pseudopotential read in
  kinetic energy density of atom read in
  atomic valenz-charges read in
  non local Contribution for L=           0  read in
    real space projection operators read in
  non local Contribution for L=           0  read in
    real space projection operators read in
  non local Contribution for L=           1  read in
    real space projection operators read in
  non local Contribution for L=           1  read in
    real space projection operators read in
  non local Contribution for L=           1  read in
    real space projection operators read in
    PAW grid and wavefunctions read in

   number of l-projection  operators is LMAX  =           5
   number of lm-projection operators is LMMAX =          11

 POTCAR:    PAW_PBE F_GW 21Dec2007                
   SHA256 =  a4be5be7c2e94ecbdd74e103f102d884b83cc3f3bf5f2c60c72fa35846851376 F_GW/POTCAR           
   COPYR  = (c) Copyright 21Dec2007 Georg Kresse                                                    
   COPYR  = This file is part of the software VASP. Any use, copying, and all other rights are regul
   COPYR  = If you do not have a valid VASP license, you may not use, copy or distribute this file. 
   VRHFIN =F: s2p5                                                                                  
   LEXCH  = PE                                                                                      
   EATOM  =   659.6475 eV,   48.4827 Ry                                                             
                                                                                                    
   TITEL  = PAW_PBE F_GW 21Dec2007                                                                  
   LULTRA =        F    use ultrasoft PP ?                                                          
   IUNSCR =        0    unscreen: 0-lin 1-nonlin 2-no                                               
   RPACOR =    0.000    partial core radius                                                         
   POMASS =   18.998; ZVAL   =    7.000    mass and valenz                                          
   RCORE  =    1.400    outmost cutoff radius                                                       
   RWIGS  =    1.500; RWIGS  =    0.794    wigner-seitz radius (au A)                               
   ENMAX  =  487.698; ENMIN  =  365.773 eV                                                          
   ICORE  =        2    local potential                                                             
   LCOR   =        T    correct aug charges                                                         
   LPAW   =        T    paw PP                                                                      
   EAUG   =  697.405                                                                                
   DEXC   =    0.000                                                                                
   RMAX   =    1.435    core radius for proj-oper                                                   
   RAUG   =    1.300    factor for augmentation sphere                                              
   RDEP   =    1.444    radius for radial grids                                                     
   RDEPT  =    1.218    core radius for aug-charge                                                  
                                                                                                    
   Atomic configuration                                                                             
    4 entries                                                                                       
     n  l   j            E        occ.                                                              
     1  0  0.50      -663.3661   2.0000                                                             
     2  0  0.50       -29.8995   2.0000                                                             
     2  1  0.50       -11.1114   5.0000                                                             
     3  2  1.50       -12.2452   0.0000                                                             
   Description                                                                                      
     l       E           TYP  RCUT    TYP  RCUT                                                     
     0    -29.8995019     23  1.100                                                                 
     0     -9.5240782     23  1.100                                                                 
     1    -11.1113914     23  1.400                                                                 
     1      1.3605826     23  1.400                                                                 
     2    -12.2452434     23  1.400                                                                 
  local pseudopotential read in
  kinetic energy density of atom read in
  atomic valenz-charges read in
  non local Contribution for L=           0  read in
    real space projection operators read in
  non local Contribution for L=           0  read in
    real space projection operators read in
  non local Contribution for L=           1  read in
    real space projection operators read in
  non local Contribution for L=           1  read in
    real space projection operators read in
    PAW grid and wavefunctions read in

   number of l-projection  operators is LMAX  =           4
   number of lm-projection operators is LMMAX =           8

 Optimization of the real space projectors (new method)

 maximal supplied QI-value         = 17.01
 optimisation between [QCUT,QGAM] = [ 11.91, 23.98] = [ 39.69,161.04] Ry 
 Optimized for a Real-space Cutoff    1.41 Angstroem

   l    n(q)    QCUT    max X(q) W(low)/X(q) W(high)/X(q)  e(spline) 
   0     10    11.905     3.417    0.52E-05    0.14E-05    0.21E-07
   0     10    11.905     3.114    0.22E-04    0.17E-05    0.22E-06
   1     10    11.905     5.429    0.19E-03    0.12E-03    0.89E-06
   1     10    11.905    22.312    0.14E-03    0.89E-04    0.45E-06
   1     10    11.905     3.323    0.31E-03    0.19E-03    0.13E-05
   2      9    11.905    12.030    0.19E-03    0.32E-04    0.24E-06
   2      9    11.905     8.156    0.21E-03    0.33E-04    0.24E-06
 Optimization of the real space projectors (new method)

 maximal supplied QI-value         = 17.95
 optimisation between [QCUT,QGAM] = [ 11.85, 23.88] = [ 39.31,159.64] Ry 
 Optimized for a Real-space Cutoff    1.45 Angstroem

   l    n(q)    QCUT    max X(q) W(low)/X(q) W(high)/X(q)  e(spline) 
   0     10    11.849   248.532    0.11E-04    0.26E-04    0.11E-05
   0     10    11.849   271.708    0.11E-04    0.26E-04    0.11E-05
   1     10    11.849   107.013    0.14E-03    0.18E-03    0.94E-06
   1     10    11.849   114.493    0.14E-03    0.18E-03    0.95E-06
   1     10    11.849    11.973    0.12E-03    0.16E-03    0.82E-06
   2      9    11.849    38.061    0.49E-03    0.41E-03    0.66E-06
   2      9    11.849    33.524    0.48E-03    0.41E-03    0.65E-06
   2      9    11.849     3.389    0.27E-03    0.25E-03    0.38E-06
   3      9    11.849     2.841    0.11E-03    0.17E-03    0.51E-06
   3      9    11.849     1.405    0.24E-04    0.86E-04    0.29E-06
 Optimization of the real space projectors (new method)

 maximal supplied QI-value         = 22.11
 optimisation between [QCUT,QGAM] = [ 11.94, 23.88] = [ 39.92,159.67] Ry 
 Optimized for a Real-space Cutoff    1.45 Angstroem

   l    n(q)    QCUT    max X(q) W(low)/X(q) W(high)/X(q)  e(spline) 
   0     10    11.939     5.088    0.25E-04    0.28E-06    0.17E-06
   0     10    11.939     1.664    0.52E-04    0.46E-05    0.54E-06
   1     10    11.939     8.077    0.27E-03    0.19E-03    0.13E-05
   1     10    11.939     5.951    0.49E-03    0.34E-03    0.25E-05
   1     10    11.939     3.597    0.20E-03    0.15E-03    0.13E-05
 Optimization of the real space projectors (new method)

 maximal supplied QI-value         = 26.83
 optimisation between [QCUT,QGAM] = [ 11.81, 23.88] = [ 39.04,159.72] Ry 
 Optimized for a Real-space Cutoff    1.11 Angstroem

   l    n(q)    QCUT    max X(q) W(low)/X(q) W(high)/X(q)  e(spline) 
   0      8    11.807    15.805    0.41E-03    0.77E-03    0.26E-06
   0      8    11.807    12.410    0.41E-03    0.76E-03    0.26E-06
   1      7    11.807     9.077    0.16E-03    0.46E-03    0.19E-06
   1      7    11.807     8.229    0.14E-03    0.43E-03    0.19E-06
  PAW_PBE Na_sv_GW 11May2015            :
 energy of atom  1       EATOM=-1305.7875
 kinetic energy error for atom=    0.0318 (will be added to EATOM!!)
  PAW_PBE Nb_sv_GW 05Dec2013            :
 energy of atom  2       EATOM=-1553.9121
 kinetic energy error for atom=    0.0281 (will be added to EATOM!!)
  PAW_PBE O_s_GW 10Jan2007              :
 energy of atom  3       EATOM= -432.3788
 kinetic energy error for atom=    0.0100 (will be added to EATOM!!)
  PAW_PBE F_GW 21Dec2007                :
 energy of atom  4       EATOM= -659.6475
 kinetic energy error for atom=    0.0458 (will be added to EATOM!!)


 POSCAR: Sodium difluorodioxoniobate
  positions in direct lattice
  No initial velocities read in
 exchange correlation table for  LEXCH =        8
   RHO(1)=    0.500       N(1)  =     2000
   RHO(2)=  100.500       N(2)  =     4000



--------------------------------------------------------------------------------------------------------


 ion  position               nearest neighbor table
   1  0.360  0.780  0.120-  19 2.26  24 2.26  17 2.29  21 2.35   9 2.47
   2  0.640  0.220  0.880-  20 2.26  23 2.26  18 2.29  22 2.35  10 2.47
   3  0.640  0.280  0.380-  17 2.26  22 2.26  19 2.29  23 2.35  11 2.47
   4  0.360  0.720  0.620-  18 2.26  21 2.26  20 2.29  24 2.35  12 2.47
   5  0.156  0.268  0.319-  12 1.83  15 1.90  13 1.94  21 2.02  17 2.04   9 2.14
   6  0.844  0.732  0.681-  11 1.83  16 1.90  14 1.94  22 2.02  18 2.04  10 2.14
   7  0.844  0.768  0.181-  10 1.83  13 1.90  15 1.94  23 2.02  19 2.04  11 2.14
   8  0.156  0.232  0.819-   9 1.83  14 1.90  16 1.94  24 2.02  20 2.04  12 2.14
   9  0.179  0.153  0.056-   8 1.83   5 2.14   1 2.47
  10  0.821  0.847  0.944-   7 1.83   6 2.14   2 2.47
  11  0.821  0.653  0.444-   6 1.83   7 2.14   3 2.47
  12  0.179  0.347  0.556-   5 1.83   8 2.14   4 2.47
  13  0.041  0.564  0.211-   7 1.90   5 1.94
  14  0.959  0.436  0.789-   8 1.90   6 1.94
  15  0.959  0.064  0.289-   5 1.90   7 1.94
  16  0.041  0.936  0.711-   6 1.90   8 1.94
  17  0.378  0.452  0.313-   5 2.04   3 2.26   1 2.29
  18  0.622  0.548  0.687-   6 2.04   4 2.26   2 2.29
  19  0.622  0.952  0.187-   7 2.04   1 2.26   3 2.29
  20  0.378  0.048  0.813-   8 2.04   2 2.26   4 2.29
  21  0.315  0.977  0.381-   5 2.02   4 2.26   1 2.35
  22  0.685  0.023  0.619-   6 2.02   3 2.26   2 2.35
  23  0.685  0.477  0.119-   7 2.02   2 2.26   3 2.35
  24  0.315  0.523  0.881-   8 2.02   1 2.26   4 2.35

  LATTYP: Found a simple monoclinic cell.
 ALAT       =     7.6242899895
 B/A-ratio  =     0.7092043771
 C/A-ratio  =     1.0496190107
 COS(beta)  =    -0.2064740474
  
  Lattice vectors:
  
 A1 = (  -1.5742180123,   0.0000000000,   7.4600023789)
 A2 = (   0.0000000000,  -5.4071798325,   0.0000000000)
 A3 = (   8.0025997162,   0.0000000000,   0.0000000000)


Analysis of symmetry for initial positions (statically):
=====================================================================
 Subroutine PRICEL returns:
 Original cell was already a primitive cell.
 

 Routine SETGRP: Setting up the symmetry group for a 
 simple monoclinic supercell.


 Subroutine GETGRP returns: Found  4 space group operations
 (whereof  2 operations were pure point group operations)
 out of a pool of  4 trial point group operations.


The static configuration has the point symmetry S_2 .
 The point group associated with its full space group is C_2h.


Analysis of symmetry for dynamics (positions and initial velocities):
=====================================================================
 Subroutine PRICEL returns:
 Original cell was already a primitive cell.
 

 Routine SETGRP: Setting up the symmetry group for a 
 simple monoclinic supercell.


 Subroutine GETGRP returns: Found  4 space group operations
 (whereof  2 operations were pure point group operations)
 out of a pool of  4 trial point group operations.


The dynamic configuration has the point symmetry S_2 .
 The point group associated with its full space group is C_2h.


 Subroutine INISYM returns: Found  4 space group operations
 (whereof  2 operations are pure point group operations),
 and found     1 'primitive' translations


----------------------------------------------------------------------------------------

                                     Primitive cell                                     

  volume of cell :     322.8055

  direct lattice vectors                    reciprocal lattice vectors
     8.002599716  0.000000000  0.000000000     0.124959393 -0.000000000  0.026369070
     0.000000000  5.407179832  0.000000000     0.000000000  0.184939290 -0.000000000
    -1.574218012  0.000000000  7.460002379     0.000000000  0.000000000  0.134048215

  length of vectors
     8.002599716  5.407179832  7.624289989     0.127711306  0.184939290  0.134048215

  position of ions in fractional coordinates (direct lattice)
     0.359541654  0.780380898  0.119594294
     0.640458316  0.219619102  0.880405713
     0.640458316  0.280380898  0.380405713
     0.359541654  0.719619102  0.619594287
     0.156330992  0.268472002  0.318930189
     0.843668993  0.731527998  0.681069841
     0.843668993  0.768472002  0.181069811
     0.156330992  0.231527998  0.818930159
     0.178725164  0.152739424  0.056394264
     0.821274836  0.847260591  0.943605714
     0.821274836  0.652739409  0.443605744
     0.178725164  0.347260591  0.556394286
     0.041360490  0.564157473  0.210735360
     0.958639491  0.435842527  0.789264625
     0.958639491  0.064157473  0.289264625
     0.041360490  0.935842527  0.710735375
     0.378197871  0.452301256  0.313053299
     0.621802158  0.547698744  0.686946731
     0.621802158  0.952301256  0.186946701
     0.378197871  0.047698744  0.813053269
     0.315078146  0.977300967  0.380617301
     0.684921854  0.022699033  0.619382699
     0.684921854  0.477300967  0.119382699
     0.315078146  0.522699033  0.880617301

  ion indices of the primitive-cell ions
   primitive index   ion index
                 1           1
                 2           2
                 3           3
                 4           4
                 5           5
                 6           6
                 7           7
                 8           8
                 9           9
                10          10
                11          11
                12          12
                13          13
                14          14
                15          15
                16          16
                17          17
                18          18
                19          19
                20          20
                21          21
                22          22
                23          23
                24          24

----------------------------------------------------------------------------------------



 KPOINTS: NbOF3_W11-333-vasp_21-relcw             

Automatic generation of k-mesh.
 Grid dimensions read from file:
 generate k-points for:    4    6    4

 Generating k-lattice:

  Cartesian coordinates                     Fractional coordinates (reciprocal lattice)
     0.031239848 -0.000000000  0.006592268     0.250000000  0.000000000  0.000000000
     0.000000000  0.030823215 -0.000000000     0.000000000  0.166666667  0.000000000
     0.000000000  0.000000000  0.033512054     0.000000000  0.000000000  0.250000000

  Length of vectors
     0.031927826  0.030823215  0.033512054

  Shift w.r.t. Gamma in fractional coordinates (k-lattice)
     0.500000000  0.500000000  0.500000000

 
 Subroutine IBZKPT returns following result:
 ===========================================
 
 Found     24 irreducible k-points:
 
 Following reciprocal coordinates:
            Coordinates               Weight
  0.125000  0.083333  0.125000      4.000000
  0.375000  0.083333  0.125000      4.000000
 -0.375000  0.083333  0.125000      4.000000
 -0.125000  0.083333  0.125000      4.000000
  0.125000  0.250000  0.125000      4.000000
  0.375000  0.250000  0.125000      4.000000
 -0.375000  0.250000  0.125000      4.000000
 -0.125000  0.250000  0.125000      4.000000
  0.125000  0.416667  0.125000      4.000000
  0.375000  0.416667  0.125000      4.000000
 -0.375000  0.416667  0.125000      4.000000
 -0.125000  0.416667  0.125000      4.000000
  0.125000  0.083333  0.375000      4.000000
  0.375000  0.083333  0.375000      4.000000
 -0.375000  0.083333  0.375000      4.000000
 -0.125000  0.083333  0.375000      4.000000
  0.125000  0.250000  0.375000      4.000000
  0.375000  0.250000  0.375000      4.000000
 -0.375000  0.250000  0.375000      4.000000
 -0.125000  0.250000  0.375000      4.000000
  0.125000  0.416667  0.375000      4.000000
  0.375000  0.416667  0.375000      4.000000
 -0.375000  0.416667  0.375000      4.000000
 -0.125000  0.416667  0.375000      4.000000
 
 Following cartesian coordinates:
            Coordinates               Weight
  0.015620  0.015412  0.020052      4.000000
  0.046860  0.015412  0.026644      4.000000
 -0.046860  0.015412  0.006868      4.000000
 -0.015620  0.015412  0.013460      4.000000
  0.015620  0.046235  0.020052      4.000000
  0.046860  0.046235  0.026644      4.000000
 -0.046860  0.046235  0.006868      4.000000
 -0.015620  0.046235  0.013460      4.000000
  0.015620  0.077058  0.020052      4.000000
  0.046860  0.077058  0.026644      4.000000
 -0.046860  0.077058  0.006868      4.000000
 -0.015620  0.077058  0.013460      4.000000
  0.015620  0.015412  0.053564      4.000000
  0.046860  0.015412  0.060156      4.000000
 -0.046860  0.015412  0.040380      4.000000
 -0.015620  0.015412  0.046972      4.000000
  0.015620  0.046235  0.053564      4.000000
  0.046860  0.046235  0.060156      4.000000
 -0.046860  0.046235  0.040380      4.000000
 -0.015620  0.046235  0.046972      4.000000
  0.015620  0.077058  0.053564      4.000000
  0.046860  0.077058  0.060156      4.000000
 -0.046860  0.077058  0.040380      4.000000
 -0.015620  0.077058  0.046972      4.000000
 
 
 Subroutine IBZKPT_HF returns following result:
 ==============================================
 
 Found     96 k-points in 1st BZ
 the following     96 k-points will be used (e.g. in the exchange kernel)
 Following reciprocal coordinates:   # in IRBZ
  0.125000  0.083333  0.125000    0.01041667   1 t-inv F
  0.375000  0.083333  0.125000    0.01041667   2 t-inv F
 -0.375000  0.083333  0.125000    0.01041667   3 t-inv F
 -0.125000  0.083333  0.125000    0.01041667   4 t-inv F
  0.125000  0.250000  0.125000    0.01041667   5 t-inv F
  0.375000  0.250000  0.125000    0.01041667   6 t-inv F
 -0.375000  0.250000  0.125000    0.01041667   7 t-inv F
 -0.125000  0.250000  0.125000    0.01041667   8 t-inv F
  0.125000  0.416667  0.125000    0.01041667   9 t-inv F
  0.375000  0.416667  0.125000    0.01041667  10 t-inv F
 -0.375000  0.416667  0.125000    0.01041667  11 t-inv F
 -0.125000  0.416667  0.125000    0.01041667  12 t-inv F
  0.125000  0.083333  0.375000    0.01041667  13 t-inv F
  0.375000  0.083333  0.375000    0.01041667  14 t-inv F
 -0.375000  0.083333  0.375000    0.01041667  15 t-inv F
 -0.125000  0.083333  0.375000    0.01041667  16 t-inv F
  0.125000  0.250000  0.375000    0.01041667  17 t-inv F
  0.375000  0.250000  0.375000    0.01041667  18 t-inv F
 -0.375000  0.250000  0.375000    0.01041667  19 t-inv F
 -0.125000  0.250000  0.375000    0.01041667  20 t-inv F
  0.125000  0.416667  0.375000    0.01041667  21 t-inv F
  0.375000  0.416667  0.375000    0.01041667  22 t-inv F
 -0.375000  0.416667  0.375000    0.01041667  23 t-inv F
 -0.125000  0.416667  0.375000    0.01041667  24 t-inv F
 -0.125000 -0.083333 -0.125000    0.01041667   1 t-inv F
 -0.125000  0.083333 -0.125000    0.01041667   1 t-inv F
  0.125000 -0.083333  0.125000    0.01041667   1 t-inv F
 -0.375000 -0.083333 -0.125000    0.01041667   2 t-inv F
 -0.375000  0.083333 -0.125000    0.01041667   2 t-inv F
  0.375000 -0.083333  0.125000    0.01041667   2 t-inv F
  0.375000 -0.083333 -0.125000    0.01041667   3 t-inv F
  0.375000  0.083333 -0.125000    0.01041667   3 t-inv F
 -0.375000 -0.083333  0.125000    0.01041667   3 t-inv F
  0.125000 -0.083333 -0.125000    0.01041667   4 t-inv F
  0.125000  0.083333 -0.125000    0.01041667   4 t-inv F
 -0.125000 -0.083333  0.125000    0.01041667   4 t-inv F
 -0.125000 -0.250000 -0.125000    0.01041667   5 t-inv F
 -0.125000  0.250000 -0.125000    0.01041667   5 t-inv F
  0.125000 -0.250000  0.125000    0.01041667   5 t-inv F
 -0.375000 -0.250000 -0.125000    0.01041667   6 t-inv F
 -0.375000  0.250000 -0.125000    0.01041667   6 t-inv F
  0.375000 -0.250000  0.125000    0.01041667   6 t-inv F
  0.375000 -0.250000 -0.125000    0.01041667   7 t-inv F
  0.375000  0.250000 -0.125000    0.01041667   7 t-inv F
 -0.375000 -0.250000  0.125000    0.01041667   7 t-inv F
  0.125000 -0.250000 -0.125000    0.01041667   8 t-inv F
  0.125000  0.250000 -0.125000    0.01041667   8 t-inv F
 -0.125000 -0.250000  0.125000    0.01041667   8 t-inv F
 -0.125000 -0.416667 -0.125000    0.01041667   9 t-inv F
 -0.125000  0.416667 -0.125000    0.01041667   9 t-inv F
  0.125000 -0.416667  0.125000    0.01041667   9 t-inv F
 -0.375000 -0.416667 -0.125000    0.01041667  10 t-inv F
 -0.375000  0.416667 -0.125000    0.01041667  10 t-inv F
  0.375000 -0.416667  0.125000    0.01041667  10 t-inv F
  0.375000 -0.416667 -0.125000    0.01041667  11 t-inv F
  0.375000  0.416667 -0.125000    0.01041667  11 t-inv F
 -0.375000 -0.416667  0.125000    0.01041667  11 t-inv F
  0.125000 -0.416667 -0.125000    0.01041667  12 t-inv F
  0.125000  0.416667 -0.125000    0.01041667  12 t-inv F
 -0.125000 -0.416667  0.125000    0.01041667  12 t-inv F
 -0.125000 -0.083333 -0.375000    0.01041667  13 t-inv F
 -0.125000  0.083333 -0.375000    0.01041667  13 t-inv F
  0.125000 -0.083333  0.375000    0.01041667  13 t-inv F
 -0.375000 -0.083333 -0.375000    0.01041667  14 t-inv F
 -0.375000  0.083333 -0.375000    0.01041667  14 t-inv F
  0.375000 -0.083333  0.375000    0.01041667  14 t-inv F
  0.375000 -0.083333 -0.375000    0.01041667  15 t-inv F
  0.375000  0.083333 -0.375000    0.01041667  15 t-inv F
 -0.375000 -0.083333  0.375000    0.01041667  15 t-inv F
  0.125000 -0.083333 -0.375000    0.01041667  16 t-inv F
  0.125000  0.083333 -0.375000    0.01041667  16 t-inv F
 -0.125000 -0.083333  0.375000    0.01041667  16 t-inv F
 -0.125000 -0.250000 -0.375000    0.01041667  17 t-inv F
 -0.125000  0.250000 -0.375000    0.01041667  17 t-inv F
  0.125000 -0.250000  0.375000    0.01041667  17 t-inv F
 -0.375000 -0.250000 -0.375000    0.01041667  18 t-inv F
 -0.375000  0.250000 -0.375000    0.01041667  18 t-inv F
  0.375000 -0.250000  0.375000    0.01041667  18 t-inv F
  0.375000 -0.250000 -0.375000    0.01041667  19 t-inv F
  0.375000  0.250000 -0.375000    0.01041667  19 t-inv F
 -0.375000 -0.250000  0.375000    0.01041667  19 t-inv F
  0.125000 -0.250000 -0.375000    0.01041667  20 t-inv F
  0.125000  0.250000 -0.375000    0.01041667  20 t-inv F
 -0.125000 -0.250000  0.375000    0.01041667  20 t-inv F
 -0.125000 -0.416667 -0.375000    0.01041667  21 t-inv F
 -0.125000  0.416667 -0.375000    0.01041667  21 t-inv F
  0.125000 -0.416667  0.375000    0.01041667  21 t-inv F
 -0.375000 -0.416667 -0.375000    0.01041667  22 t-inv F
 -0.375000  0.416667 -0.375000    0.01041667  22 t-inv F
  0.375000 -0.416667  0.375000    0.01041667  22 t-inv F
  0.375000 -0.416667 -0.375000    0.01041667  23 t-inv F
  0.375000  0.416667 -0.375000    0.01041667  23 t-inv F
 -0.375000 -0.416667  0.375000    0.01041667  23 t-inv F
  0.125000 -0.416667 -0.375000    0.01041667  24 t-inv F
  0.125000  0.416667 -0.375000    0.01041667  24 t-inv F
 -0.125000 -0.416667  0.375000    0.01041667  24 t-inv F


--------------------------------------------------------------------------------------------------------




 Dimension of arrays:
   k-points           NKPTS =     24   k-points in BZ     NKDIM =     24   number of bands    NBANDS=    115
   number of dos      NEDOS =    301   number of ions     NIONS =     24
   non local maximal  LDIM  =     10   non local SUM 2l+1 LMDIM =     40
   total plane-waves  NPLWV =  73728
   max r-space proj   IRMAX =   2954   max aug-charges    IRDMAX=   7773
   dimension x,y,z NGX =    48 NGY =   32 NGZ =   48
   dimension x,y,z NGXF=    96 NGYF=   64 NGZF=   96
   support grid    NGXF=    96 NGYF=   64 NGZF=   96
   ions per type =               4   4   8   8
   NGX,Y,Z   is equivalent  to a cutoff of   9.97,  9.84, 10.47 a.u.
   NGXF,Y,Z  is equivalent  to a cutoff of  19.94, 19.68, 20.93 a.u.

 SYSTEM =  unknown system                          
 POSCAR =  Sodium difluorodioxoniobate             

 Startparameter for this run:
   NWRITE =      2    write-flag & timer
   PREC   = n         normal or accurate (medium, high low for compatibility)
   ISTART =      0    job   : 0-new  1-cont  2-samecut
   ICHARG =      2    charge: 1-file 2-atom 10-const
   ISPIN  =      1    spin polarized calculation?
   LNONCOLLINEAR =      F non collinear calculations
   LSORBIT =      F    spin-orbit coupling
   INIWAV =      1    electr: 0-lowe 1-rand  2-diag
   LASPH  =      F    aspherical Exc in radial PAW
 Electronic Relaxation 1
   ENCUT  =  550.0 eV  40.42 Ry    6.36 a.u.  15.30 10.34 14.58*2*pi/ulx,y,z
   ENINI  =  550.0     initial cutoff
   ENAUG  =  985.6 eV  augmentation charge cutoff
   NELM   =     60;   NELMIN=  2; NELMDL= -5     # of ELM steps 
   EDIFF  = 0.1E-07   stopping-criterion for ELM
   LREAL  =      T    real-space projection
   NLSPLINE    = F    spline interpolate recip. space projectors
   LCOMPAT=      F    compatible to vasp.4.4
   GGA_COMPAT  = T    GGA compatible to vasp.4.4-vasp.4.6
   LMAXPAW     = -100 max onsite density
   LMAXMIX     =    2 max onsite mixed and CHGCAR
   VOSKOWN=      0    Vosko Wilk Nusair interpolation
   ROPT   =   -0.00050  -0.00050  -0.00050  -0.00050
 Ionic relaxation
   EDIFFG = 0.1E-06   stopping-criterion for IOM
   NSW    =      0    number of steps for IOM
   NBLOCK =      1;   KBLOCK =      1    inner block; outer block 
   IBRION =     -1    ionic relax: 0-MD 1-quasi-New 2-CG
   NFREE  =      0    steps in history (QN), initial steepest desc. (CG)
   ISIF   =      2    stress and relaxation
   IWAVPR =     10    prediction:  0-non 1-charg 2-wave 3-comb
   ISYM   =      2    0-nonsym 1-usesym 2-fastsym
   LCORR  =      T    Harris-Foulkes like correction to forces

   POTIM  = 0.5000    time-step for ionic-motion
   TEIN   =    0.0    initial temperature
   TEBEG  =    0.0;   TEEND  =   0.0 temperature during run
   SMASS  =  -3.00    Nose mass-parameter (am)
   estimated Nose-frequenzy (Omega)   =  0.10E-29 period in steps = 0.13E+47 mass=  -0.146E-26a.u.
   SCALEE = 1.0000    scale energy and forces
   NPACO  =    256;   APACO  = 16.0  distance and # of slots for P.C.
   PSTRESS=    0.0 pullay stress

  Mass of Ions in am
   POMASS =  22.99 92.91 16.00 19.00
  Ionic Valenz
   ZVAL   =   9.00 13.00  6.00  7.00
  Atomic Wigner-Seitz radii
   RWIGS  =  -1.00 -1.00 -1.00 -1.00
  virtual crystal weights 
   VCA    =   1.00  1.00  1.00  1.00
   NELECT =     192.0000    total number of electrons
   NUPDOWN=      -1.0000    fix difference up-down

 DOS related values:
   EMIN   =  10.00;   EMAX   =-10.00  energy-range for DOS
   EFERMI =   0.00
   ISMEAR =     0;   SIGMA  =   0.01  broadening in eV -4-tet -1-fermi 0-gaus

 Electronic relaxation 2 (details)
   IALGO  =     38    algorithm
   LDIAG  =      T    sub-space diagonalisation (order eigenvalues)
   LSUBROT=      F    optimize rotation matrix (better conditioning)
   TURBO    =      0    0=normal 1=particle mesh
   IRESTART =      0    0=no restart 2=restart with 2 vectors
   NREBOOT  =      0    no. of reboots
   NMIN     =      0    reboot dimension
   EREF     =   0.00    reference energy to select bands
   IMIX   =      4    mixing-type and parameters
     AMIX     =   0.40;   BMIX     =  1.00
     AMIX_MAG =   1.60;   BMIX_MAG =  1.00
     AMIN     =   0.10
     WC   =   100.;   INIMIX=   1;  MIXPRE=   1;  MAXMIX= -45

 Intra band minimization:
   WEIMIN = 0.0000     energy-eigenvalue tresh-hold
   EBREAK =  0.22E-10  absolut break condition
   DEPER  =   0.30     relativ break condition  

   TIME   =   0.40     timestep for ELM

  volume/ion in A,a.u.               =      13.45        90.77
  Fermi-wavevector in a.u.,A,eV,Ry     =   1.376771  2.601719 25.789810  1.895498
  Thomas-Fermi vector in A             =   2.501985

 Write flags
   LWAVE        =      T    write WAVECAR
   LDOWNSAMPLE  =      F    k-point downsampling of WAVECAR
   LCHARG       =      T    write CHGCAR
   LVTOT        =      F    write LOCPOT, total local potential
   LVHAR        =      F    write LOCPOT, Hartree potential only
   LELF         =      F    write electronic localiz. function (ELF)
   LORBIT       =      0    0 simple, 1 ext, 2 COOP (PROOUT), +10 PAW based schemes


 Dipole corrections
   LMONO  =      F    monopole corrections only (constant potential shift)
   LDIPOL =      F    correct potential (dipole corrections)
   IDIPOL =      0    1-x, 2-y, 3-z, 4-all directions 
   EPSILON=  1.0000000 bulk dielectric constant

 Exchange correlation treatment:
   GGA     =    --    GGA type
   LEXCH   =     8    internal setting for exchange type
   VOSKOWN=      0    Vosko Wilk Nusair interpolation
   LHFCALC =     F    Hartree Fock is set to
   LHFONE  =     F    Hartree Fock one center treatment
   AEXX    =    0.0000 exact exchange contribution

 Linear response parameters
   LEPSILON=     F    determine dielectric tensor
   LRPA    =     F    only Hartree local field effects (RPA)
   LNABLA  =     F    use nabla operator in PAW spheres
   LVEL    =     F    velocity operator in full k-point grid
   LINTERFAST=   F  fast interpolation
   KINTER  =     0    interpolate to denser k-point grid
   CSHIFT  =0.1000    complex shift for real part using Kramers Kronig
   OMEGAMAX=  -1.0    maximum frequency
   DEG_THRESHOLD= 0.2000000E-02 threshold for treating states as degnerate
   RTIME   =   -0.100 relaxation time in fs
  (WPLASMAI=    0.000 imaginary part of plasma frequency in eV, 0.658/RTIME)
   DFIELD  = 0.0000000 0.0000000 0.0000000 field for delta impulse in time

 Orbital magnetization related:
   ORBITALMAG=     F  switch on orbital magnetization
   LMAGBLOCH =     F  use Bloch summation to obtain orbital mag.
   LCHIMAG   =     T  perturbation theory with respect to B field
   DQ        =  0.003000  dq finite difference perturbation B field
   LGAUGE    =     T  gauge transformation for 0 moment terms
   NUCIND    =     F  nuclear independent calculation        
   MAGPOS    =    0.0000    0.0000    0.0000  position of magnetic moment in nuclear independent calculation
   MAGATOM   =     0  atom on which magnetic dipole is placed
   JATOM     =     0  atom on which magnetic dipole is evaluated
   MAGDIPOL  =    0.0000    0.0000    0.0000 magnetic dipole

 Orbital magnetization related:
   ORBITALMAG=     F  switch on orbital magnetization
   LCHIMAG   =     T  perturbation theory with respect to B field
   DQ        =  0.003000  dq finite difference perturbation B field
   LLRAUG    =     F  two centre corrections for induced B field



--------------------------------------------------------------------------------------------------------


 Static calculation
 charge density and potential will be updated during run
 non-spin polarized calculation
 Variant of blocked Davidson
 Davidson routine will perform the subspace rotation
 perform sub-space diagonalisation
    after iterative eigenvector-optimisation
 modified Broyden-mixing scheme, WC =      100.0
 initial mixing is a Kerker type mixing with AMIX =  0.4000 and BMIX =      1.0000
 Hartree-type preconditioning will be used
 using additional bands           19
 real space projection scheme for non local part
 use partial core corrections
 calculate Harris-corrections to forces   (improved forces if not selfconsistent)
 use gradient corrections 
 use of overlap-Matrix (Vanderbilt PP)
 Gauss-broadening in eV      SIGMA  =   0.01


--------------------------------------------------------------------------------------------------------


  energy-cutoff  :      550.00
  volume of cell :      322.81
      direct lattice vectors                 reciprocal lattice vectors
     8.002599716  0.000000000  0.000000000     0.124959393 -0.000000000  0.026369070
     0.000000000  5.407179832  0.000000000     0.000000000  0.184939290 -0.000000000
    -1.574218012  0.000000000  7.460002379     0.000000000  0.000000000  0.134048215

  length of vectors
     8.002599716  5.407179832  7.624289989     0.127711306  0.184939290  0.134048215



 k-points in units of 2pi/SCALE and weight: NbOF3_W11-333-vasp_21-relcw             
   0.01561992  0.01541161  0.02005216       0.042
   0.04685977  0.01541161  0.02664443       0.042
  -0.04685977  0.01541161  0.00686763       0.042
  -0.01561992  0.01541161  0.01345989       0.042
   0.01561992  0.04623482  0.02005216       0.042
   0.04685977  0.04623482  0.02664443       0.042
  -0.04685977  0.04623482  0.00686763       0.042
  -0.01561992  0.04623482  0.01345989       0.042
   0.01561992  0.07705804  0.02005216       0.042
   0.04685977  0.07705804  0.02664443       0.042
  -0.04685977  0.07705804  0.00686763       0.042
  -0.01561992  0.07705804  0.01345989       0.042
   0.01561992  0.01541161  0.05356421       0.042
   0.04685977  0.01541161  0.06015648       0.042
  -0.04685977  0.01541161  0.04037968       0.042
  -0.01561992  0.01541161  0.04697195       0.042
   0.01561992  0.04623482  0.05356421       0.042
   0.04685977  0.04623482  0.06015648       0.042
  -0.04685977  0.04623482  0.04037968       0.042
  -0.01561992  0.04623482  0.04697195       0.042
   0.01561992  0.07705804  0.05356421       0.042
   0.04685977  0.07705804  0.06015648       0.042
  -0.04685977  0.07705804  0.04037968       0.042
  -0.01561992  0.07705804  0.04697195       0.042

 k-points in reciprocal lattice and weights: NbOF3_W11-333-vasp_21-relcw             
   0.12500000  0.08333333  0.12500000       0.042
   0.37500000  0.08333333  0.12500000       0.042
  -0.37500000  0.08333333  0.12500000       0.042
  -0.12500000  0.08333333  0.12500000       0.042
   0.12500000  0.25000000  0.12500000       0.042
   0.37500000  0.25000000  0.12500000       0.042
  -0.37500000  0.25000000  0.12500000       0.042
  -0.12500000  0.25000000  0.12500000       0.042
   0.12500000  0.41666667  0.12500000       0.042
   0.37500000  0.41666667  0.12500000       0.042
  -0.37500000  0.41666667  0.12500000       0.042
  -0.12500000  0.41666667  0.12500000       0.042
   0.12500000  0.08333333  0.37500000       0.042
   0.37500000  0.08333333  0.37500000       0.042
  -0.37500000  0.08333333  0.37500000       0.042
  -0.12500000  0.08333333  0.37500000       0.042
   0.12500000  0.25000000  0.37500000       0.042
   0.37500000  0.25000000  0.37500000       0.042
  -0.37500000  0.25000000  0.37500000       0.042
  -0.12500000  0.25000000  0.37500000       0.042
   0.12500000  0.41666667  0.37500000       0.042
   0.37500000  0.41666667  0.37500000       0.042
  -0.37500000  0.41666667  0.37500000       0.042
  -0.12500000  0.41666667  0.37500000       0.042

 position of ions in fractional coordinates (direct lattice) 
   0.35954165  0.78038090  0.11959429
   0.64045832  0.21961910  0.88040571
   0.64045832  0.28038090  0.38040571
   0.35954165  0.71961910  0.61959429
   0.15633099  0.26847200  0.31893019
   0.84366899  0.73152800  0.68106984
   0.84366899  0.76847200  0.18106981
   0.15633099  0.23152800  0.81893016
   0.17872516  0.15273942  0.05639426
   0.82127484  0.84726059  0.94360571
   0.82127484  0.65273941  0.44360574
   0.17872516  0.34726059  0.55639429
   0.04136049  0.56415747  0.21073536
   0.95863949  0.43584253  0.78926462
   0.95863949  0.06415747  0.28926462
   0.04136049  0.93584253  0.71073538
   0.37819787  0.45230126  0.31305330
   0.62180216  0.54769874  0.68694673
   0.62180216  0.95230126  0.18694670
   0.37819787  0.04769874  0.81305327
   0.31507815  0.97730097  0.38061730
   0.68492185  0.02269903  0.61938270
   0.68492185  0.47730097  0.11938270
   0.31507815  0.52269903  0.88061730

 position of ions in cartesian coordinates  (Angst):
   2.68900045  4.21965985  0.89217372
   3.73938100  1.18751998  6.56782871
   4.52649001  1.51606994  2.83782752
   1.90189145  3.89110990  4.62217486
   0.74898870  1.45167640  2.37921996
   5.67939283  3.95550344  5.08078264
   6.46650189  4.15526631  1.35078122
  -0.03812026  1.25191352  6.10922093
   1.34148908  0.82588953  0.42070135
   5.08689266  4.58129038  7.03930087
   5.87400162  3.52947937  3.30929990
   0.55438004  1.87770046  4.15070270
  -0.00075196  3.05050091  1.57208629
   6.42913353  2.35667892  5.88791598
   7.21624254  0.34691099  2.15791479
  -0.78786099  5.06026884  5.30208759
   2.53375203  2.44567423  2.33537835
   3.89462986  2.96150560  5.12462425
   4.68173891  5.14926415  1.39462284
   1.74664307  0.25791569  6.06537932
   1.92226967  5.28444208  2.83940597
   4.50611204  0.12273775  4.62059641
   5.29322104  2.58085216  0.89059522
   1.13516066  2.82632767  6.56940716



--------------------------------------------------------------------------------------------------------


 k-point   1 :   0.1250 0.0833 0.1250  plane waves:    9479
 k-point   2 :   0.3750 0.0833 0.1250  plane waves:    9438
 k-point   3 :  -0.3750 0.0833 0.1250  plane waves:    9451
 k-point   4 :  -0.1250 0.0833 0.1250  plane waves:    9473
 k-point   5 :   0.1250 0.2500 0.1250  plane waves:    9464
 k-point   6 :   0.3750 0.2500 0.1250  plane waves:    9451
 k-point   7 :  -0.3750 0.2500 0.1250  plane waves:    9459
 k-point   8 :  -0.1250 0.2500 0.1250  plane waves:    9455
 k-point   9 :   0.1250 0.4167 0.1250  plane waves:    9455
 k-point  10 :   0.3750 0.4167 0.1250  plane waves:    9466
 k-point  11 :  -0.3750 0.4167 0.1250  plane waves:    9468
 k-point  12 :  -0.1250 0.4167 0.1250  plane waves:    9441
 k-point  13 :   0.1250 0.0833 0.3750  plane waves:    9462
 k-point  14 :   0.3750 0.0833 0.3750  plane waves:    9447
 k-point  15 :  -0.3750 0.0833 0.3750  plane waves:    9451
 k-point  16 :  -0.1250 0.0833 0.3750  plane waves:    9464
 k-point  17 :   0.1250 0.2500 0.3750  plane waves:    9443
 k-point  18 :   0.3750 0.2500 0.3750  plane waves:    9443
 k-point  19 :  -0.3750 0.2500 0.3750  plane waves:    9460
 k-point  20 :  -0.1250 0.2500 0.3750  plane waves:    9450
 k-point  21 :   0.1250 0.4167 0.3750  plane waves:    9454
 k-point  22 :   0.3750 0.4167 0.3750  plane waves:    9439
 k-point  23 :  -0.3750 0.4167 0.3750  plane waves:    9441
 k-point  24 :  -0.1250 0.4167 0.3750  plane waves:    9446

 maximum and minimum number of plane-waves per node :      9479     9438

 maximum number of plane-waves:      9479
 maximum index in each direction: 
   IXMAX=   15   IYMAX=   10   IZMAX=   14
   IXMIN=  -15   IYMIN=  -10   IZMIN=  -14


 serial   3D FFT for wavefunctions
 parallel 3D FFT for charge:
    minimum data exchange during FFTs selected (reduces bandwidth)


 total amount of memory used by VASP MPI-rank0   544514. kBytes
=======================================================================

   base      :      30000. kBytes
   nonlr-proj:       9970. kBytes
   fftplans  :      20492. kBytes
   grid      :      46129. kBytes
   one-center:       1843. kBytes
   wavefun   :     436080. kBytes

     INWAV:  cpu time    0.0000: real time    0.0000
 Broyden mixing: mesh for mixing (old mesh)
   NGX = 31   NGY = 21   NGZ = 29
  (NGX  = 96   NGY  = 64   NGZ  = 96)
  gives a total of  18879 points

 initial charge density was supplied:
 charge density of overlapping atoms calculated
 number of electron     192.0000000 magnetization 
 keeping initial charge density in first step


--------------------------------------------------------------------------------------------------------


 Maximum index for non-local projection operator         2825
 Maximum index for augmentation-charges         7361 (set IRDMAX)


--------------------------------------------------------------------------------------------------------


 First call to EWALD:  gamma=   0.258
 Maximum number of real-space cells 2x 3x 3
 Maximum number of reciprocal cells 3x 2x 3

    FEWALD:  cpu time    0.0055: real time    0.0055


--------------------------------------- Iteration      1(   1)  ---------------------------------------


    POTLOK:  cpu time    0.3949: real time    0.3949
    SETDIJ:  cpu time    0.0415: real time    0.0415
     EDDAV:  cpu time   54.7712: real time   54.7758
       DOS:  cpu time    0.0024: real time    0.0024
    --------------------------------------------
      LOOP:  cpu time   55.2100: real time   55.2146

 eigenvalue-minimisations  :  5552
 total energy-change (2. order) : 0.3509606E+04  (-0.1032984E+05)
 number of electron     192.0000000 magnetization 
 augmentation part      192.0000000 magnetization 

 Free energy of the ion-electron system (eV)
  ---------------------------------------------------
  alpha Z        PSCENC =       630.11505249
  Ewald energy   TEWEN  =    -12667.68265563
  -Hartree energ DENC   =     -5824.74068136
  -exchange      EXHF   =         0.00000000
  -V(xc)+E(xc)   XCENC  =       948.86473235
  PAW double counting   =     15344.41123578   -16066.60662730
  entropy T*S    EENTRO =        -0.00053347
  eigenvalues    EBANDS =       970.92316629
  atomic energy  EATOM  =     20174.32265256
  Solvation  Ediel_sol  =         0.00000000
  ---------------------------------------------------
  free energy    TOTEN  =      3509.60634171 eV

  energy without entropy =     3509.60687518  energy(sigma->0) =     3509.60660845


--------------------------------------------------------------------------------------------------------




--------------------------------------- Iteration      1(   2)  ---------------------------------------


     EDDAV:  cpu time   53.9740: real time   53.9784
       DOS:  cpu time    0.0019: real time    0.0019
    --------------------------------------------
      LOOP:  cpu time   53.9759: real time   53.9804

 eigenvalue-minimisations  :  5537
 total energy-change (2. order) :-0.3086130E+04  (-0.2895837E+04)
 number of electron     192.0000000 magnetization 
 augmentation part      192.0000000 magnetization 

 Free energy of the ion-electron system (eV)
  ---------------------------------------------------
  alpha Z        PSCENC =       630.11505249
  Ewald energy   TEWEN  =    -12667.68265563
  -Hartree energ DENC   =     -5824.74068136
  -exchange      EXHF   =         0.00000000
  -V(xc)+E(xc)   XCENC  =       948.86473235
  PAW double counting   =     15344.41123578   -16066.60662730
  entropy T*S    EENTRO =        -0.00000087
  eigenvalues    EBANDS =     -2115.20784196
  atomic energy  EATOM  =     20174.32265256
  Solvation  Ediel_sol  =         0.00000000
  ---------------------------------------------------
  free energy    TOTEN  =       423.47586606 eV

  energy without entropy =      423.47586693  energy(sigma->0) =      423.47586650


--------------------------------------------------------------------------------------------------------




--------------------------------------- Iteration      1(   3)  ---------------------------------------


     EDDAV:  cpu time   66.5781: real time   66.5836
       DOS:  cpu time    0.0006: real time    0.0006
    --------------------------------------------
      LOOP:  cpu time   66.5787: real time   66.5843

 eigenvalue-minimisations  :  8758
 total energy-change (2. order) :-0.6186322E+03  (-0.6056461E+03)
 number of electron     192.0000000 magnetization 
 augmentation part      192.0000000 magnetization 

 Free energy of the ion-electron system (eV)
  ---------------------------------------------------
  alpha Z        PSCENC =       630.11505249
  Ewald energy   TEWEN  =    -12667.68265563
  -Hartree energ DENC   =     -5824.74068136
  -exchange      EXHF   =         0.00000000
  -V(xc)+E(xc)   XCENC  =       948.86473235
  PAW double counting   =     15344.41123578   -16066.60662730
  entropy T*S    EENTRO =        -0.00000000
  eigenvalues    EBANDS =     -2733.84007821
  atomic energy  EATOM  =     20174.32265256
  Solvation  Ediel_sol  =         0.00000000
  ---------------------------------------------------
  free energy    TOTEN  =      -195.15636932 eV

  energy without entropy =     -195.15636932  energy(sigma->0) =     -195.15636932


--------------------------------------------------------------------------------------------------------




--------------------------------------- Iteration      1(   4)  ---------------------------------------


     EDDAV:  cpu time   66.5573: real time   66.5628
       DOS:  cpu time    0.0007: real time    0.0007
    --------------------------------------------
      LOOP:  cpu time   66.5580: real time   66.5635

 eigenvalue-minimisations  :  8576
 total energy-change (2. order) :-0.3514159E+02  (-0.3493762E+02)
 number of electron     192.0000000 magnetization 
 augmentation part      192.0000000 magnetization 

 Free energy of the ion-electron system (eV)
  ---------------------------------------------------
  alpha Z        PSCENC =       630.11505249
  Ewald energy   TEWEN  =    -12667.68265563
  -Hartree energ DENC   =     -5824.74068136
  -exchange      EXHF   =         0.00000000
  -V(xc)+E(xc)   XCENC  =       948.86473235
  PAW double counting   =     15344.41123578   -16066.60662730
  entropy T*S    EENTRO =        -0.00000000
  eigenvalues    EBANDS =     -2768.98167096
  atomic energy  EATOM  =     20174.32265256
  Solvation  Ediel_sol  =         0.00000000
  ---------------------------------------------------
  free energy    TOTEN  =      -230.29796207 eV

  energy without entropy =     -230.29796207  energy(sigma->0) =     -230.29796207


--------------------------------------------------------------------------------------------------------




--------------------------------------- Iteration      1(   5)  ---------------------------------------


     EDDAV:  cpu time   67.5545: real time   67.5601
       DOS:  cpu time    0.0007: real time    0.0007
    CHARGE:  cpu time    2.3293: real time    2.3295
    MIXING:  cpu time    0.0091: real time    0.0091
    --------------------------------------------
      LOOP:  cpu time   69.8936: real time   69.8994

 eigenvalue-minimisations  :  8728
 total energy-change (2. order) :-0.9582467E+00  (-0.9532221E+00)
 number of electron     191.9999897 magnetization 
 augmentation part       28.9731276 magnetization 

 Broyden mixing:
  rms(total) = 0.49976E+01    rms(broyden)= 0.49972E+01
  rms(prec ) = 0.67640E+01
  weight for this iteration     100.00

 Free energy of the ion-electron system (eV)
  ---------------------------------------------------
  alpha Z        PSCENC =       630.11505249
  Ewald energy   TEWEN  =    -12667.68265563
  -Hartree energ DENC   =     -5824.74068136
  -exchange      EXHF   =         0.00000000
  -V(xc)+E(xc)   XCENC  =       948.86473235
  PAW double counting   =     15344.41123578   -16066.60662730
  entropy T*S    EENTRO =        -0.00000000
  eigenvalues    EBANDS =     -2769.93991764
  atomic energy  EATOM  =     20174.32265256
  Solvation  Ediel_sol  =         0.00000000
  ---------------------------------------------------
  free energy    TOTEN  =      -231.25620875 eV

  energy without entropy =     -231.25620875  energy(sigma->0) =     -231.25620875


--------------------------------------------------------------------------------------------------------




--------------------------------------- Iteration      1(   6)  ---------------------------------------


    POTLOK:  cpu time    0.3017: real time    0.3017
    SETDIJ:  cpu time    0.0398: real time    0.0398
     EDDAV:  cpu time   71.6775: real time   71.6834
       DOS:  cpu time    0.0006: real time    0.0006
    CHARGE:  cpu time    2.3408: real time    2.3410
    MIXING:  cpu time    0.0085: real time    0.0085
    --------------------------------------------
      LOOP:  cpu time   74.3690: real time   74.3751

 eigenvalue-minimisations  :  9360
 total energy-change (2. order) : 0.4790406E+02  (-0.1981246E+02)
 number of electron     191.9999909 magnetization 
 augmentation part       24.9695030 magnetization 

 Broyden mixing:
  rms(total) = 0.18570E+01    rms(broyden)= 0.18565E+01
  rms(prec ) = 0.22402E+01
  weight for this iteration     100.00

 eigenvalues of (default mixing * dielectric matrix)
  average eigenvalue GAMMA=   0.9646
  0.9646

 Free energy of the ion-electron system (eV)
  ---------------------------------------------------
  alpha Z        PSCENC =       630.11505249
  Ewald energy   TEWEN  =    -12667.68265563
  -Hartree energ DENC   =     -5942.61549189
  -exchange      EXHF   =         0.00000000
  -V(xc)+E(xc)   XCENC  =       962.65352426
  PAW double counting   =     16244.43699838   -16978.49470235
  entropy T*S    EENTRO =        -0.00000000
  eigenvalues    EBANDS =     -2606.08752309
  atomic energy  EATOM  =     20174.32265256
  Solvation  Ediel_sol  =         0.00000000
  ---------------------------------------------------
  free energy    TOTEN  =      -183.35214527 eV

  energy without entropy =     -183.35214527  energy(sigma->0) =     -183.35214527


--------------------------------------------------------------------------------------------------------




--------------------------------------- Iteration      1(   7)  ---------------------------------------


    POTLOK:  cpu time    0.3023: real time    0.3023
    SETDIJ:  cpu time    0.0397: real time    0.0397
     EDDAV:  cpu time   63.0602: real time   63.0655
       DOS:  cpu time    0.0007: real time    0.0007
    CHARGE:  cpu time    2.6163: real time    2.6165
    MIXING:  cpu time    0.0106: real time    0.0106
    --------------------------------------------
      LOOP:  cpu time   66.0298: real time   66.0352

 eigenvalue-minimisations  :  8024
 total energy-change (2. order) : 0.3431927E+00  (-0.3222954E+01)
 number of electron     191.9999909 magnetization 
 augmentation part       25.6333564 magnetization 

 Broyden mixing:
  rms(total) = 0.39918E+01    rms(broyden)= 0.39918E+01
  rms(prec ) = 0.40300E+01
  weight for this iteration     100.00

 eigenvalues of (default mixing * dielectric matrix)
  average eigenvalue GAMMA=   0.7260
  0.8449  0.6072

 Free energy of the ion-electron system (eV)
  ---------------------------------------------------
  alpha Z        PSCENC =       630.11505249
  Ewald energy   TEWEN  =    -12667.68265563
  -Hartree energ DENC   =     -5890.88778051
  -exchange      EXHF   =         0.00000000
  -V(xc)+E(xc)   XCENC  =       959.31969768
  PAW double counting   =     16465.44006625   -17195.31663014
  entropy T*S    EENTRO =        -0.00000000
  eigenvalues    EBANDS =     -2658.31935529
  atomic energy  EATOM  =     20174.32265256
  Solvation  Ediel_sol  =         0.00000000
  ---------------------------------------------------
  free energy    TOTEN  =      -183.00895260 eV

  energy without entropy =     -183.00895260  energy(sigma->0) =     -183.00895260


--------------------------------------------------------------------------------------------------------




--------------------------------------- Iteration      1(   8)  ---------------------------------------


    POTLOK:  cpu time    0.3663: real time    0.3664
    SETDIJ:  cpu time    0.0429: real time    0.0429
     EDDAV:  cpu time   67.1093: real time   67.1149
       DOS:  cpu time    0.0006: real time    0.0006
    CHARGE:  cpu time    2.4083: real time    2.4085
    MIXING:  cpu time    0.0090: real time    0.0090
    --------------------------------------------
      LOOP:  cpu time   69.9365: real time   69.9423

 eigenvalue-minimisations  :  8736
 total energy-change (2. order) :-0.4024739E+00  (-0.1917664E+00)
 number of electron     191.9999910 magnetization 
 augmentation part       25.4648793 magnetization 

 Broyden mixing:
  rms(total) = 0.50657E+01    rms(broyden)= 0.50657E+01
  rms(prec ) = 0.51076E+01
  weight for this iteration     100.00

 eigenvalues of (default mixing * dielectric matrix)
  average eigenvalue GAMMA=   1.1253
  1.8791  0.7484  0.7484

 Free energy of the ion-electron system (eV)
  ---------------------------------------------------
  alpha Z        PSCENC =       630.11505249
  Ewald energy   TEWEN  =    -12667.68265563
  -Hartree energ DENC   =     -5898.58908369
  -exchange      EXHF   =         0.00000000
  -V(xc)+E(xc)   XCENC  =       959.72612085
  PAW double counting   =     16349.97116770   -17080.28312540
  entropy T*S    EENTRO =        -0.00000000
  eigenvalues    EBANDS =     -2650.99155534
  atomic energy  EATOM  =     20174.32265256
  Solvation  Ediel_sol  =         0.00000000
  ---------------------------------------------------
  free energy    TOTEN  =      -183.41142646 eV

  energy without entropy =     -183.41142646  energy(sigma->0) =     -183.41142646


--------------------------------------------------------------------------------------------------------




--------------------------------------- Iteration      1(   9)  ---------------------------------------


    POTLOK:  cpu time    0.3059: real time    0.3059
    SETDIJ:  cpu time    0.0411: real time    0.0412
     EDDAV:  cpu time   71.7519: real time   71.7578
       DOS:  cpu time    0.0006: real time    0.0006
    CHARGE:  cpu time    2.3922: real time    2.3925
    MIXING:  cpu time    0.0096: real time    0.0096
    --------------------------------------------
      LOOP:  cpu time   74.5013: real time   74.5075

 eigenvalue-minimisations  :  9056
 total energy-change (2. order) : 0.2382026E+00  (-0.2995356E+00)
 number of electron     191.9999912 magnetization 
 augmentation part       25.4338977 magnetization 

 Broyden mixing:
  rms(total) = 0.20096E+01    rms(broyden)= 0.20096E+01
  rms(prec ) = 0.20626E+01
  weight for this iteration     100.00

 eigenvalues of (default mixing * dielectric matrix)
  average eigenvalue GAMMA=   1.0714
  1.5266  1.5266  0.8097  0.4228

 Free energy of the ion-electron system (eV)
  ---------------------------------------------------
  alpha Z        PSCENC =       630.11505249
  Ewald energy   TEWEN  =    -12667.68265563
  -Hartree energ DENC   =     -5880.19051085
  -exchange      EXHF   =         0.00000000
  -V(xc)+E(xc)   XCENC  =       959.36371995
  PAW double counting   =     17056.27574408   -17785.74136047
  entropy T*S    EENTRO =        -0.00000000
  eigenvalues    EBANDS =     -2669.63586598
  atomic energy  EATOM  =     20174.32265256
  Solvation  Ediel_sol  =         0.00000000
  ---------------------------------------------------
  free energy    TOTEN  =      -183.17322385 eV

  energy without entropy =     -183.17322385  energy(sigma->0) =     -183.17322385


--------------------------------------------------------------------------------------------------------




--------------------------------------- Iteration      1(  10)  ---------------------------------------


    POTLOK:  cpu time    0.3109: real time    0.3110
    SETDIJ:  cpu time    0.0403: real time    0.0403
     EDDAV:  cpu time   75.3228: real time   75.3290
       DOS:  cpu time    0.0006: real time    0.0006
    CHARGE:  cpu time    2.3774: real time    2.3776
    MIXING:  cpu time    0.0100: real time    0.0100
    --------------------------------------------
      LOOP:  cpu time   78.0621: real time   78.0685

 eigenvalue-minimisations  :  9472
 total energy-change (2. order) : 0.3680861E+00  (-0.5999394E-01)
 number of electron     191.9999911 magnetization 
 augmentation part       25.4571152 magnetization 

 Broyden mixing:
  rms(total) = 0.23017E+01    rms(broyden)= 0.23017E+01
  rms(prec ) = 0.23168E+01
  weight for this iteration     100.00

 eigenvalues of (default mixing * dielectric matrix)
  average eigenvalue GAMMA=   1.0900
  2.1420  1.4467  0.8623  0.4995  0.4995

 Free energy of the ion-electron system (eV)
  ---------------------------------------------------
  alpha Z        PSCENC =       630.11505249
  Ewald energy   TEWEN  =    -12667.68265563
  -Hartree energ DENC   =     -5876.76405026
  -exchange      EXHF   =         0.00000000
  -V(xc)+E(xc)   XCENC  =       958.89425498
  PAW double counting   =     17072.22721538   -17801.02040710
  entropy T*S    EENTRO =        -0.00000000
  eigenvalues    EBANDS =     -2672.89720016
  atomic energy  EATOM  =     20174.32265256
  Solvation  Ediel_sol  =         0.00000000
  ---------------------------------------------------
  free energy    TOTEN  =      -182.80513774 eV

  energy without entropy =     -182.80513774  energy(sigma->0) =     -182.80513774


--------------------------------------------------------------------------------------------------------




--------------------------------------- Iteration      1(  11)  ---------------------------------------


    POTLOK:  cpu time    0.3075: real time    0.3075
    SETDIJ:  cpu time    0.0404: real time    0.0404
     EDDAV:  cpu time   65.3177: real time   65.3231
       DOS:  cpu time    0.0006: real time    0.0006
    CHARGE:  cpu time    2.3890: real time    2.3892
    MIXING:  cpu time    0.0103: real time    0.0103
    --------------------------------------------
      LOOP:  cpu time   68.0655: real time   68.0711

 eigenvalue-minimisations  :  7912
 total energy-change (2. order) : 0.5345162E-01  (-0.3647430E-01)
 number of electron     191.9999910 magnetization 
 augmentation part       25.5284617 magnetization 

 Broyden mixing:
  rms(total) = 0.17007E+01    rms(broyden)= 0.17007E+01
  rms(prec ) = 0.17060E+01
  weight for this iteration     100.00

 eigenvalues of (default mixing * dielectric matrix)
  average eigenvalue GAMMA=   1.0119
  2.2154  1.3409  0.8687  0.4483  0.5990  0.5990

 Free energy of the ion-electron system (eV)
  ---------------------------------------------------
  alpha Z        PSCENC =       630.11505249
  Ewald energy   TEWEN  =    -12667.68265563
  -Hartree energ DENC   =     -5875.22194713
  -exchange      EXHF   =         0.00000000
  -V(xc)+E(xc)   XCENC  =       958.74270895
  PAW double counting   =     17187.61381931   -17915.88336439
  entropy T*S    EENTRO =        -0.00000000
  eigenvalues    EBANDS =     -2674.75795229
  atomic energy  EATOM  =     20174.32265256
  Solvation  Ediel_sol  =         0.00000000
  ---------------------------------------------------
  free energy    TOTEN  =      -182.75168612 eV

  energy without entropy =     -182.75168612  energy(sigma->0) =     -182.75168612


--------------------------------------------------------------------------------------------------------




--------------------------------------- Iteration      1(  12)  ---------------------------------------


    POTLOK:  cpu time    0.3100: real time    0.3100
    SETDIJ:  cpu time    0.0402: real time    0.0402
     EDDAV:  cpu time   69.5621: real time   69.5680
       DOS:  cpu time    0.0007: real time    0.0007
    CHARGE:  cpu time    2.3856: real time    2.3859
    MIXING:  cpu time    0.0107: real time    0.0107
    --------------------------------------------
      LOOP:  cpu time   72.3094: real time   72.3155

 eigenvalue-minimisations  :  8592
 total energy-change (2. order) :-0.2091280E-01  (-0.1901076E-02)
 number of electron     191.9999910 magnetization 
 augmentation part       25.5207758 magnetization 

 Broyden mixing:
  rms(total) = 0.14683E+01    rms(broyden)= 0.14683E+01
  rms(prec ) = 0.14767E+01
  weight for this iteration     100.00

 eigenvalues of (default mixing * dielectric matrix)
  average eigenvalue GAMMA=   1.2016
  2.3712  1.5172  1.5172  0.8924  0.8924  0.6104  0.6104

 Free energy of the ion-electron system (eV)
  ---------------------------------------------------
  alpha Z        PSCENC =       630.11505249
  Ewald energy   TEWEN  =    -12667.68265563
  -Hartree energ DENC   =     -5877.05570715
  -exchange      EXHF   =         0.00000000
  -V(xc)+E(xc)   XCENC  =       958.87107387
  PAW double counting   =     17205.39118759   -17933.64209232
  entropy T*S    EENTRO =        -0.00000000
  eigenvalues    EBANDS =     -2673.09211033
  atomic energy  EATOM  =     20174.32265256
  Solvation  Ediel_sol  =         0.00000000
  ---------------------------------------------------
  free energy    TOTEN  =      -182.77259892 eV

  energy without entropy =     -182.77259892  energy(sigma->0) =     -182.77259892


--------------------------------------------------------------------------------------------------------




--------------------------------------- Iteration      1(  13)  ---------------------------------------


    POTLOK:  cpu time    0.3066: real time    0.3066
    SETDIJ:  cpu time    0.0400: real time    0.0400
     EDDAV:  cpu time   70.0393: real time   70.0450
       DOS:  cpu time    0.0007: real time    0.0007
    CHARGE:  cpu time    2.6274: real time    2.6277
    MIXING:  cpu time    0.0139: real time    0.0139
    --------------------------------------------
      LOOP:  cpu time   73.0278: real time   73.0339

 eigenvalue-minimisations  :  8880
 total energy-change (2. order) : 0.1336150E-01  (-0.9920421E-03)
 number of electron     191.9999910 magnetization 
 augmentation part       25.5204048 magnetization 

 Broyden mixing:
  rms(total) = 0.81048E+00    rms(broyden)= 0.81048E+00
  rms(prec ) = 0.82176E+00
  weight for this iteration     100.00

 eigenvalues of (default mixing * dielectric matrix)
  average eigenvalue GAMMA=   1.2366
  2.5549  2.0312  1.5915  1.0157  0.8151  0.5495  0.6674  0.6674

 Free energy of the ion-electron system (eV)
  ---------------------------------------------------
  alpha Z        PSCENC =       630.11505249
  Ewald energy   TEWEN  =    -12667.68265563
  -Hartree energ DENC   =     -5878.69428205
  -exchange      EXHF   =         0.00000000
  -V(xc)+E(xc)   XCENC  =       958.94751866
  PAW double counting   =     17282.58091541   -18010.57279092
  entropy T*S    EENTRO =        -0.00000000
  eigenvalues    EBANDS =     -2671.77564793
  atomic energy  EATOM  =     20174.32265256
  Solvation  Ediel_sol  =         0.00000000
  ---------------------------------------------------
  free energy    TOTEN  =      -182.75923742 eV

  energy without entropy =     -182.75923742  energy(sigma->0) =     -182.75923742


[...]
    18     -0.256025E+01      0.776709E+00     -0.610007E+02
    19     -0.183623E+01     -0.918959E+00     -0.602575E+02
    20     -0.183623E+01     -0.918972E+00     -0.602579E+02
    21     -0.529556E+01      0.104160E+02     -0.527968E+02
    22     -0.529558E+01      0.104160E+02     -0.527967E+02
    23     -0.419020E+01     -0.959121E+01     -0.516982E+02
    24     -0.419022E+01     -0.959125E+01     -0.516978E+02

 -------------------------------------------------------------
   one center paramagnetic contribution
 -------------------------------------------------------------
     1     -0.165162E+01     -0.447459E+01      0.565681E+02
     2     -0.165164E+01     -0.447460E+01      0.565682E+02
     3     -0.176569E+01      0.469073E+01      0.570967E+02
     4     -0.176568E+01      0.469075E+01      0.570967E+02
     5     -0.404817E+02     -0.950498E+02      0.291420E+04
     6     -0.404811E+02     -0.950507E+02      0.291421E+04
     7     -0.452572E+02      0.969965E+02      0.291710E+04
     8     -0.452561E+02      0.969983E+02      0.291710E+04
     9      0.528892E+02      0.837022E+02      0.288112E+03
    10      0.528890E+02      0.837012E+02      0.288111E+03
    11      0.540348E+02     -0.830008E+02      0.258418E+03
    12      0.540345E+02     -0.830001E+02      0.258417E+03
    13     -0.672899E+02      0.766357E+02      0.751877E+03
    14     -0.672905E+02      0.766360E+02      0.751876E+03
    15     -0.604449E+02     -0.711888E+02      0.756672E+03
    16     -0.604453E+02     -0.711883E+02      0.756673E+03
    17     -0.120424E+02      0.219443E+01      0.298638E+03
    18     -0.120425E+02      0.219434E+01      0.298636E+03
    19     -0.815989E+01     -0.191932E+01      0.302068E+03
    20     -0.815989E+01     -0.191936E+01      0.302066E+03
    21     -0.285058E+02      0.486847E+02      0.339550E+03
    22     -0.285058E+02      0.486847E+02      0.339551E+03
    23     -0.240692E+02     -0.440377E+02      0.344546E+03
    24     -0.240693E+02     -0.440379E+02      0.344548E+03

 -------------------------------------------------------------
   one center diamagnetic contribution
 -------------------------------------------------------------
     1     -0.303259E-02      0.244791E-01     -0.153657E+03
     2     -0.303268E-02      0.244793E-01     -0.153657E+03
     3     -0.317286E-02     -0.243122E-01     -0.153657E+03
     4     -0.317302E-02     -0.243123E-01     -0.153657E+03
     5      0.116982E-01      0.312944E-01      0.148720E+02
     6      0.116979E-01      0.312947E-01      0.148720E+02
     7      0.102323E-01     -0.306590E-01      0.148717E+02
     8      0.102318E-01     -0.306595E-01      0.148717E+02
     9      0.673180E-01     -0.823061E-01     -0.331585E+02
    10      0.673181E-01     -0.823063E-01     -0.331586E+02
    11      0.649758E-01      0.801110E-01     -0.331566E+02
    12      0.649758E-01      0.801108E-01     -0.331566E+02
    13     -0.365607E-01     -0.221581E-01     -0.331839E+02
    14     -0.365612E-01     -0.221577E-01     -0.331839E+02
    15     -0.316373E-01      0.196109E-01     -0.331875E+02
    16     -0.316375E-01      0.196111E-01     -0.331875E+02
    17     -0.302496E-01      0.126142E-01     -0.417611E+02
    18     -0.302500E-01      0.126142E-01     -0.417611E+02
    19     -0.292954E-01     -0.120935E-01     -0.417596E+02
    20     -0.292960E-01     -0.120938E-01     -0.417596E+02
    21     -0.514463E-01      0.132120E+00     -0.417455E+02
    22     -0.514464E-01      0.132121E+00     -0.417455E+02
    23     -0.501722E-01     -0.133249E+00     -0.417407E+02
    24     -0.501726E-01     -0.133250E+00     -0.417407E+02
 -------------------------------------------------------------
 -------------------------------------------------------------


 -------------------------------------------------------------
  Absolute Chemical Shift tensors
 -------------------------------------------------------------
  UNSYMMETRIZED TENSORS 
 ion    1
       -181.256122         -4.318963         -1.946554
         -3.923621       -190.305389         -7.279837
         -1.321431         -5.112993       -187.437963
 ion    2
       -181.256065         -4.318990         -1.946565
         -3.923636       -190.305338         -7.279841
         -1.321454         -5.113012       -187.437884
 ion    3
       -181.229255          4.389075         -1.243185
          3.333856       -190.331739          7.189477
         -1.415733          5.201827       -186.854433
 ion    4
       -181.229159          4.389035         -1.243183
          3.333808       -190.331750          7.189472
         -1.415725          5.201851       -186.854428
 ion    5
       3325.852151          4.841909        -50.023952
        -72.301406       3298.791581         -4.501459
        -43.654233       -103.774244       2968.924601
 ion    6
       3325.855712          4.836664        -50.024589
        -72.305102       3298.800597         -4.498515
        -43.653570       -103.775189       2968.931659
 ion    7
       3379.946299          9.134129        -17.950659
         79.757956       3337.449039         21.755421
        -48.567291        105.760872       2971.335104
 ion    8
       3379.945339          9.134127        -17.952593
         79.757427       3337.451587         21.754889
        -48.566025        105.762798       2971.332972
 ion    9
        744.304387        -60.316510         45.316458
        -48.231689        770.149914        146.434670
         62.259330         99.942452        215.607625
 ion   10
        744.299823        -60.316316         45.316194
        -48.231409        770.144267        146.433564
         62.259177         99.941192        215.606303
 ion   11
        776.649569         33.552334         56.168449
         46.140792        769.353747       -145.243229
         63.663062        -98.865554        180.106956
 ion   12
        776.644922         33.553306         56.168025
         46.141022        769.349396       -145.242047
         63.662767        -98.864708        180.105394
 ion   13
        468.683086        210.051834        -99.460427
        176.565406        456.867580         98.932471
        -80.022435         90.195189        765.794824
 ion   14
        468.682281        210.050421        -99.460382
        176.564155        456.866959         98.932715
        -80.023115         90.195535        765.793805
 ion   15
        449.581243       -231.467481        -99.303785
       -178.716700        458.424724        -94.766312
        -71.901436        -83.405332        771.577727
 ion   16
        449.581230       -231.466885        -99.303578
       -178.715834        458.424904        -94.765896
        -71.901892        -83.404691        771.578355
 ion   17
         47.467079        -24.957413          3.528749
        -19.513780        100.224447          6.507167
        -14.632833          2.983781        195.876736
 ion   18
         47.467036        -24.956546          3.528520
        -19.512597        100.223164          6.507340
        -14.632987          2.983665        195.874651
 ion   19
         42.715466         31.618940         -0.191881
         22.901638         99.186748         -9.999158
        -10.025415         -2.850373        200.050638
 ion   20
         42.714342         31.617854         -0.192137
         22.900430         99.184022         -9.999636
        -10.025418         -2.850424        200.048509
 ion   21
        115.674261         28.570889        -19.823186
         30.659069         86.179642         33.239102
        -33.852784         59.232860        245.008012
 ion   22
        115.673784         28.570789        -19.823592
         30.658413         86.179797         33.239103
        -33.852868         59.232815        245.008624
 ion   23
        107.360234        -39.370565         -7.116921
        -36.629179         85.459865        -42.271760
        -28.309548        -53.762176        251.107201
 ion   24
        107.360321        -39.370271         -7.117089
        -36.628303         85.460133        -42.272153
        -28.309667        -53.762403        251.108993
  SYMMETRIZED TENSORS 
 ion    1
       -181.242650         -4.354016         -1.594872
         -3.628730       -190.318554         -7.234656
         -1.368586         -5.157421       -187.146177
 ion    2
       -181.242650         -4.354016         -1.594872
         -3.628730       -190.318554         -7.234656
         -1.368586         -5.157421       -187.146177
 ion    3
       -181.242650          4.354016         -1.594872
          3.628730       -190.318554          7.234656
         -1.368586          5.157421       -187.146177
 ion    4
       -181.242650          4.354016         -1.594872
          3.628730       -190.318554          7.234656
         -1.368586          5.157421       -187.146177
 ion    5
       3352.899875         -2.147421        -33.987948
        -76.030473       3318.123201        -13.127571
        -46.110280       -104.768276       2970.131084
 ion    6
       3352.899875         -2.147421        -33.987948
        -76.030473       3318.123201        -13.127571
        -46.110280       -104.768276       2970.131084
 ion    7
       3352.899875          2.147421        -33.987948
         76.030473       3318.123201         13.127571
        -46.110280        104.768276       2970.131084
 ion    8
       3352.899875          2.147421        -33.987948
         76.030473       3318.123201         13.127571
        -46.110280        104.768276       2970.131084
 ion    9
        760.474675        -46.934616         50.742282
        -47.186228        769.749331        145.838377
         62.961084         99.403477        197.856570
 ion   10
        760.474675        -46.934616         50.742282
        -47.186228        769.749331        145.838377
         62.961084         99.403477        197.856570
 ion   11
        760.474675         46.934616         50.742282
         47.186228        769.749331       -145.838377
         62.961084        -99.403477        197.856570
 ion   12
        760.474675         46.934616         50.742282
         47.186228        769.749331       -145.838377
         62.961084        -99.403477        197.856570
 ion   13
        459.131960        220.759155        -99.382043
        177.640523        457.646042         96.849349
        -75.962220         86.800187        768.686178
 ion   14
        459.131960        220.759155        -99.382043
        177.640523        457.646042         96.849349
        -75.962220         86.800187        768.686178
 ion   15
        459.131960       -220.759155        -99.382043
       -177.640523        457.646042        -96.849349
        -75.962220        -86.800187        768.686178
 ion   16
        459.131960       -220.759155        -99.382043
       -177.640523        457.646042        -96.849349
        -75.962220        -86.800187        768.686178
 ion   17
         45.090981        -28.287688          1.668313
        -21.207111         99.704596          8.253325
        -12.329164          2.917061        197.962634
 ion   18
         45.090981        -28.287688          1.668313
        -21.207111         99.704596          8.253325
        -12.329164          2.917061        197.962634
 ion   19
         45.090981         28.287688          1.668313
         21.207111         99.704596         -8.253325
        -12.329164         -2.917061        197.962634
 ion   20
         45.090981         28.287688          1.668313
         21.207111         99.704596         -8.253325
        -12.329164         -2.917061        197.962634
 ion   21
        111.517150         33.970628        -13.470197
         33.643741         85.819859         37.755529
        -31.081217         56.497563        248.058207
 ion   22
        111.517150         33.970628        -13.470197
         33.643741         85.819859         37.755529
        -31.081217         56.497563        248.058207
 ion   23
        111.517150        -33.970628        -13.470197
        -33.643741         85.819859        -37.755529
        -31.081217        -56.497563        248.058207
 ion   24
        111.517150        -33.970628        -13.470197
        -33.643741         85.819859        -37.755529
        -31.081217        -56.497563        248.058207
 -------------------------------------------------------------


 -------------------------------------------------------------
  G=0 CONTRIBUTION TO CHEMICAL SHIFT (field along BDIR) 
 -------------------------------------------------------------
   BDIR                X                 Y                 Z
 -------------------------------------------------------------
     1         -3.209629          0.000000         -0.038028
     2          0.000000         -3.152906          0.000000
     3         -0.054908          0.000000         -3.516637
 -------------------------------------------------------------

  Approximate magnetic susceptibility, pGv (10^-6 cm^3/mole) 
     1        -74.478008          0.000000         -0.882422
     2          0.000000        -73.161789          0.000000
     3         -1.274113          0.000000        -81.602006
 -------------------------------------------------------------


 --------------------------------------------------------------------------
  Core NMR properties        

  typ  El   Core shift (ppm)
 ----------------------------
    1  Na    -377.2811014
    2  Nb   -3786.6089620
    3  O     -271.0766935
    4  F     -306.4193758
 ----------------------------

  Core contribution to magnetic susceptibility:    -14.96  10^-6 cm^3/mole
 --------------------------------------------------------------------------


 ---------------------------------------------------------------------------------
  CSA tensor (J. Mason, Solid State Nucl. Magn. Reson. 2, 285 (1993))             
 ---------------------------------------------------------------------------------
             EXCLUDING G=0 CONTRIBUTION             INCLUDING G=0 CONTRIBUTION    
         -----------------------------------   -----------------------------------
  ATOM    ISO_SHIFT        SPAN        SKEW     ISO_SHIFT        SPAN        SKEW 
 ---------------------------------------------------------------------------------
  (absolute, valence only)                                                                  
     1    -186.2358     16.6491      0.6042     -189.5289     16.7187      0.5889
     2    -186.2358     16.6491      0.6042     -189.5289     16.7187      0.5889
     3    -186.2358     16.6491      0.6042     -189.5289     16.7187      0.5889
     4    -186.2358     16.6491      0.6042     -189.5289     16.7187      0.5889
     5    3213.7181    423.2094      0.6667     3210.4250    423.5292      0.6670
     6    3213.7181    423.2094      0.6667     3210.4250    423.5292      0.6670
     7    3213.7181    423.2094      0.6667     3210.4250    423.5292      0.6670
     8    3213.7181    423.2094      0.6667     3210.4250    423.5292      0.6670
     9     576.0269    652.8354      0.7729      572.7338    653.1537      0.7728
    10     576.0269    652.8354      0.7729      572.7338    653.1537      0.7728
    11     576.0269    652.8354      0.7729      572.7338    653.1537      0.7728
    12     576.0269    652.8354      0.7729      572.7338    653.1537      0.7728
    13     561.8214    569.2882      0.5044      558.5283    569.0162      0.5053
    14     561.8214    569.2882      0.5044      558.5283    569.0162      0.5053
    15     561.8214    569.2882      0.5044      558.5283    569.0162      0.5053
    16     561.8214    569.2882      0.5044      558.5283    569.0162      0.5053
    17     114.2527    163.0943     -0.1025      110.9597    162.7883     -0.1003
    18     114.2527    163.0943     -0.1025      110.9597    162.7883     -0.1003
    19     114.2527    163.0943     -0.1025      110.9597    162.7883     -0.1003
    20     114.2527    163.0943     -0.1025      110.9597    162.7883     -0.1003
    21     148.4651    212.7449     -0.1988      145.1720    212.4641     -0.1977
    22     148.4651    212.7449     -0.1988      145.1720    212.4641     -0.1977
    23     148.4651    212.7449     -0.1988      145.1720    212.4641     -0.1977
    24     148.4651    212.7449     -0.1988      145.1720    212.4641     -0.1977
 ---------------------------------------------------------------------------------
  (absolute, valence and core)                                                                  
     1    -563.5169     16.6491      0.6042     -567.4548     16.7187      0.5889
     2    -563.5169     16.6491      0.6042     -567.4548     16.7187      0.5889
     3    -563.5169     16.6491      0.6042     -567.4548     16.7187      0.5889
     4    -563.5169     16.6491      0.6042     -567.4548     16.7187      0.5889
     5    -572.8909    423.2094      0.6667     -576.8288    423.5292      0.6670
     6    -572.8909    423.2094      0.6667     -576.8288    423.5292      0.6670
     7    -572.8909    423.2094      0.6667     -576.8288    423.5292      0.6670
     8    -572.8909    423.2094      0.6667     -576.8288    423.5292      0.6670
     9     304.9502    652.8354      0.7729      301.0122    653.1537      0.7728
    10     304.9502    652.8354      0.7729      301.0122    653.1537      0.7728
    11     304.9502    652.8354      0.7729      301.0122    653.1537      0.7728
    12     304.9502    652.8354      0.7729      301.0122    653.1537      0.7728
    13     290.7447    569.2882      0.5044      286.8068    569.0162      0.5053
    14     290.7447    569.2882      0.5044      286.8068    569.0162      0.5053
    15     290.7447    569.2882      0.5044      286.8068    569.0162      0.5053
    16     290.7447    569.2882      0.5044      286.8068    569.0162      0.5053
    17    -192.1666    163.0943     -0.1025     -196.1046    162.7883     -0.1003
    18    -192.1666    163.0943     -0.1025     -196.1046    162.7883     -0.1003
    19    -192.1666    163.0943     -0.1025     -196.1046    162.7883     -0.1003
    20    -192.1666    163.0943     -0.1025     -196.1046    162.7883     -0.1003
    21    -157.9543    212.7449     -0.1988     -161.8922    212.4641     -0.1977
    22    -157.9543    212.7449     -0.1988     -161.8922    212.4641     -0.1977
    23    -157.9543    212.7449     -0.1988     -161.8922    212.4641     -0.1977
    24    -157.9543    212.7449     -0.1988     -161.8922    212.4641     -0.1977
 ---------------------------------------------------------------------------------
  IF SPAN.EQ.0, THEN SKEW IS ILL-DEFINED                                          
 ---------------------------------------------------------------------------------


 writing wavefunctions
     LOOP+:  cpu time41187.7616: real time41191.3021
    4ORBIT:  cpu time    0.0000: real time    0.0000

 total amount of memory used by VASP MPI-rank0   544514. kBytes
=======================================================================

   base      :      30000. kBytes
   nonlr-proj:       9970. kBytes
   fftplans  :      20492. kBytes
   grid      :      46129. kBytes
   one-center:       1843. kBytes
   wavefun   :     436080. kBytes

  
  
 General timing and accounting informations for this job:
 ========================================================
  
                  Total CPU time used (sec):    41197.215
                            User time (sec):    41163.753
                          System time (sec):       33.461
                         Elapsed time (sec):    41200.949
  
                   Maximum memory used (kb):     2313844.
                   Average memory used (kb):          N/A
  
                          Minor page faults:       183131
                          Major page faults:            2
                 Voluntary context switches:         1543
