unknown system                          
           1
     8.002600    0.000000    0.000000
     0.000000    5.407180    0.000000
    -1.574218    0.000000    7.460002
   Na   Nb   O    F 
     4     4     8     8
Direct configuration=     1
   0.35954165  0.78038090  0.11959429
   0.64045832  0.21961910  0.88040571
   0.64045832  0.28038090  0.38040571
   0.35954165  0.71961910  0.61959429
   0.15633099  0.26847200  0.31893019
   0.84366899  0.73152800  0.68106984
   0.84366899  0.76847200  0.18106981
   0.15633099  0.23152800  0.81893016
   0.17872516  0.15273942  0.05639426
   0.82127484  0.84726059  0.94360571
   0.82127484  0.65273941  0.44360574
   0.17872516  0.34726059  0.55639429
   0.04136049  0.56415747  0.21073536
   0.95863949  0.43584253  0.78926462
   0.95863949  0.06415747  0.28926462
   0.04136049  0.93584253  0.71073538
   0.37819787  0.45230126  0.31305330
   0.62180216  0.54769874  0.68694673
   0.62180216  0.95230126  0.18694670
   0.37819787  0.04769874  0.81305327
   0.31507815  0.97730097  0.38061730
   0.68492185  0.02269903  0.61938270
   0.68492185  0.47730097  0.11938270
   0.31507815  0.52269903  0.88061730
