Loading vasp/6.2.1-gcc-10.2
  Loading requirement: hdf5/1.12.1-gcc-10.2 wannier90/3.1.0-gcc-10.2
 ----------------------------------------------------
    OOO  PPPP  EEEEE N   N M   M PPPP
   O   O P   P E     NN  N MM MM P   P
   O   O PPPP  EEEEE N N N M M M PPPP   -- VERSION
   O   O P     E     N  NN M   M P
    OOO  P     EEEEE N   N M   M P
 ----------------------------------------------------
 running    8 mpi-ranks, with    1 threads/rank
 distrk:  each k-point on    8 cores,    1 groups
 distr:  one band on    1 cores,    8 groups
 vasp.6.2.1 16May21 (build Jan  3 2022 11:18:50) complex                         
 POSCAR found type information on POSCAR NaNbO F 
 POSCAR found :  4 types and      24 ions
 Reading from existing POTCAR
 scaLAPACK will be used
 Reading from existing POTCAR
 LDA part: xc-table for Pade appr. of Perdew
 POSCAR, INCAR and KPOINTS ok, starting setup
 FFT: planning ...
 WAVECAR not read
 entering main loop
       N       E                     dE             d eps       ncg     rms          rms(c)
DAV:   1     0.345923222425E+04    0.34592E+04   -0.10271E+05  5776   0.184E+03
DAV:   2     0.388485014464E+03   -0.30707E+04   -0.28356E+04  5768   0.762E+02
DAV:   3    -0.197568175619E+03   -0.58605E+03   -0.57395E+03  9000   0.342E+02
DAV:   4    -0.230221404932E+03   -0.32653E+02   -0.32399E+02  9040   0.993E+01
DAV:   5    -0.231078570810E+03   -0.85717E+00   -0.85222E+00  9216   0.164E+01    0.496E+01
DAV:   6    -0.182849727708E+03    0.48229E+02   -0.18441E+02  9736   0.793E+01    0.182E+01
DAV:   7    -0.182335918403E+03    0.51381E+00   -0.29193E+01  8448   0.280E+01    0.389E+01
DAV:   8    -0.182703419697E+03   -0.36750E+00   -0.16771E+00  9216   0.715E+00    0.500E+01
DAV:   9    -0.182314316538E+03    0.38910E+00   -0.20176E+00  9168   0.116E+01    0.229E+01
DAV:  10    -0.182050839600E+03    0.26348E+00   -0.46784E-01  9536   0.607E+00    0.242E+01
DAV:  11    -0.182037943853E+03    0.12896E-01   -0.17045E-01  8864   0.164E+00    0.190E+01
DAV:  12    -0.182053918407E+03   -0.15975E-01   -0.97998E-03  9048   0.706E-01    0.170E+01
DAV:  13    -0.182040405848E+03    0.13513E-01   -0.12562E-02  8712   0.777E-01    0.951E+00
DAV:  14    -0.182022057035E+03    0.18349E-01   -0.20243E-02  9520   0.759E-01    0.711E+00
DAV:  15    -0.182016507659E+03    0.55494E-02   -0.67704E-03  9240   0.334E-01    0.474E+00
DAV:  16    -0.182011258522E+03    0.52491E-02   -0.89190E-03  9560   0.440E-01    0.247E+00
DAV:  17    -0.182010446146E+03    0.81238E-03   -0.24837E-03  9208   0.218E-01    0.123E+00
DAV:  18    -0.182010117153E+03    0.32899E-03   -0.98229E-04  9336   0.142E-01    0.342E-01
DAV:  19    -0.182010111084E+03    0.60687E-05   -0.21826E-04  9120   0.660E-02    0.719E-02
DAV:  20    -0.182010112516E+03   -0.14314E-05   -0.66779E-06  8600   0.180E-02    0.638E-02
DAV:  21    -0.182010112267E+03    0.24839E-06   -0.80284E-06  9240   0.176E-02    0.120E-02
DAV:  22    -0.182010111866E+03    0.40178E-06   -0.10810E-06  8704   0.815E-03    0.152E-02
DAV:  23    -0.182010111744E+03    0.12160E-06   -0.18738E-07  7928   0.235E-03    0.139E-02
DAV:  24    -0.182010111730E+03    0.14268E-07   -0.81243E-08  6216   0.181E-03    0.651E-03
DAV:  25    -0.182010111715E+03    0.14792E-07   -0.21325E-08  4800   0.812E-04    0.447E-03
DAV:  26    -0.182010111735E+03   -0.20053E-07   -0.57860E-09  3944   0.589E-04    0.305E-03
DAV:  27    -0.182010111754E+03   -0.19034E-07   -0.65536E-09  3936   0.547E-04    0.112E-03
DAV:  28    -0.182010111752E+03    0.24120E-08   -0.31196E-09  3728   0.371E-04
   1 F= -.18201011E+03 E0= -.18201011E+03  d E =-.182010E+03
 curvature:   0.00 expect dE= 0.000E+00 dE for cont linesearch  0.000E+00
 trial: gam= 0.00000 g(F)=  0.117E+01 g(S)=  0.000E+00 ort = 0.000E+00 (trialstep = 0.100E+01)
 search vector abs. value=  0.117E+01
 bond charge predicted
       N       E                     dE             d eps       ncg     rms          rms(c)
DAV:   1    -0.181474175668E+03    0.53594E+00   -0.30335E+02  6848   0.876E+01    0.909E+00
DAV:   2    -0.182698704838E+03   -0.12245E+01   -0.13631E+01  8328   0.184E+01    0.268E+00
DAV:   3    -0.182662308428E+03    0.36396E-01   -0.47570E-01  9208   0.515E+00    0.158E+00
DAV:   4    -0.182645761720E+03    0.16547E-01   -0.62554E-02  9248   0.164E+00    0.833E-01
DAV:   5    -0.182645500026E+03    0.26169E-03   -0.17207E-02  9032   0.792E-01    0.275E-01
DAV:   6    -0.182645578181E+03   -0.78155E-04   -0.31399E-03  9008   0.334E-01    0.185E-01
DAV:   7    -0.182645647866E+03   -0.69685E-04   -0.39700E-04  8984   0.110E-01    0.104E-01
DAV:   8    -0.182645664709E+03   -0.16843E-04   -0.14141E-04  8976   0.849E-02    0.643E-02
DAV:   9    -0.182645664854E+03   -0.14454E-06   -0.13668E-05  8800   0.315E-02    0.465E-02
DAV:  10    -0.182645665707E+03   -0.85340E-06   -0.77601E-06  9176   0.146E-02    0.273E-02
DAV:  11    -0.182645664599E+03    0.11081E-05   -0.17303E-06  9848   0.110E-02    0.124E-02
DAV:  12    -0.182645664352E+03    0.24714E-06   -0.25508E-06  9016   0.714E-03    0.349E-03
DAV:  13    -0.182645664337E+03    0.15214E-07   -0.24992E-07  7624   0.298E-03    0.328E-03
DAV:  14    -0.182645664280E+03    0.56381E-07   -0.74677E-08  6672   0.132E-03    0.177E-03
DAV:  15    -0.182645664220E+03    0.60088E-07   -0.33261E-08  5160   0.125E-03    0.767E-04
DAV:  16    -0.182645664219E+03    0.10114E-08   -0.16526E-08  4352   0.660E-04
   2 F= -.18264566E+03 E0= -.18264566E+03  d E =-.635552E+00
 trial-energy change:   -0.635552  1 .order   -0.603146   -1.167115   -0.039176
 step:   1.0295(harm=  1.0347)  dis= 0.07839  next Energy=  -182.646243 (dE=-0.636E+00)
 bond charge predicted
       N       E                     dE             d eps       ncg     rms          rms(c)
DAV:   1    -0.182645316590E+03    0.34763E-03   -0.26001E-01  6528   0.249E+00    0.246E-01
DAV:   2    -0.182646266525E+03   -0.94994E-03   -0.10810E-02  8440   0.571E-01    0.921E-02
DAV:   3    -0.182646233046E+03    0.33480E-04   -0.38585E-04  9208   0.157E-01    0.530E-02
DAV:   4    -0.182646220455E+03    0.12590E-04   -0.46968E-05  9088   0.436E-02    0.265E-02
DAV:   5    -0.182646218763E+03    0.16928E-05   -0.16597E-05  8768   0.212E-02    0.100E-02
DAV:   6    -0.182646219000E+03   -0.23783E-06   -0.36491E-06  8864   0.122E-02    0.462E-03
DAV:   7    -0.182646219015E+03   -0.14978E-07   -0.26430E-07  8632   0.362E-03    0.256E-03
DAV:   8    -0.182646219037E+03   -0.21228E-07   -0.16665E-07  7408   0.269E-03    0.684E-04
DAV:   9    -0.182646219036E+03    0.40745E-09   -0.20179E-08  4576   0.117E-03
   3 F= -.18264622E+03 E0= -.18264622E+03  d E =-.636107E+00
 curvature:  -0.51 expect dE=-0.339E-01 dE for cont linesearch -0.153E-05
 trial: gam= 0.05912 g(F)=  0.671E-01 g(S)=  0.000E+00 ort =-0.188E-02 (trialstep = 0.101E+01)
 search vector abs. value=  0.710E-01
 bond charge predicted
       N       E                     dE             d eps       ncg     rms          rms(c)
DAV:   1    -0.182554139530E+03    0.92080E-01   -0.24667E+01  6336   0.295E+01    0.205E+00
DAV:   2    -0.182668170653E+03   -0.11403E+00   -0.13350E+00  8008   0.623E+00    0.979E-01
DAV:   3    -0.182668449169E+03   -0.27852E-03   -0.46156E-02  9056   0.151E+00    0.552E-01
DAV:   4    -0.182666244297E+03    0.22049E-02   -0.65579E-03  9112   0.494E-01    0.314E-01
DAV:   5    -0.182665386295E+03    0.85800E-03   -0.17471E-03  9064   0.281E-01    0.143E-01
DAV:   6    -0.182665245169E+03    0.14113E-03   -0.68878E-04  9056   0.169E-01    0.635E-02
DAV:   7    -0.182665250182E+03   -0.50126E-05   -0.17453E-04  8928   0.101E-01    0.490E-02
DAV:   8    -0.182665250629E+03   -0.44714E-06   -0.37153E-05  9080   0.336E-02    0.160E-02
DAV:   9    -0.182665249366E+03    0.12633E-05   -0.11582E-05  8616   0.239E-02    0.650E-03
DAV:  10    -0.182665249780E+03   -0.41445E-06   -0.26064E-06  9088   0.118E-02    0.805E-03
DAV:  11    -0.182665250204E+03   -0.42340E-06   -0.35540E-07  8672   0.415E-03    0.360E-03
DAV:  12    -0.182665250371E+03   -0.16710E-06   -0.79371E-08  6632   0.196E-03    0.106E-03
DAV:  13    -0.182665250368E+03    0.30523E-08   -0.12595E-07  7344   0.173E-03    0.397E-04
DAV:  14    -0.182665250363E+03    0.49622E-08   -0.10600E-08  4192   0.779E-04
   4 F= -.18266525E+03 E0= -.18266525E+03  d E =-.190313E-01
 trial-energy change:   -0.019031  1 .order   -0.019352   -0.067399    0.028696
 step:   0.7013(harm=  0.7055)  dis= 0.00906  next Energy=  -182.669604 (dE=-0.234E-01)
 bond charge predicted
       N       E                     dE             d eps       ncg     rms          rms(c)
DAV:   1    -0.182659597412E+03    0.56530E-02   -0.22599E+00  6336   0.893E+00    0.591E-01
DAV:   2    -0.182669899061E+03   -0.10302E-01   -0.12042E-01  7984   0.182E+00    0.276E-01
DAV:   3    -0.182669907934E+03   -0.88732E-05   -0.42994E-03  9112   0.473E-01    0.171E-01
DAV:   4    -0.182669685710E+03    0.22222E-03   -0.75017E-04  9104   0.159E-01    0.861E-02
DAV:   5    -0.182669609023E+03    0.76686E-04   -0.22890E-04  9128   0.103E-01    0.331E-02
DAV:   6    -0.182669607546E+03    0.14778E-05   -0.72976E-05  9040   0.442E-02    0.289E-02
DAV:   7    -0.182669607553E+03   -0.74033E-08   -0.12602E-05  8928   0.232E-02    0.255E-02
DAV:   8    -0.182669606722E+03    0.83100E-06   -0.43428E-06  8600   0.135E-02    0.627E-03
DAV:   9    -0.182669606767E+03   -0.45278E-07   -0.17913E-06  8816   0.934E-03    0.383E-03
DAV:  10    -0.182669606764E+03    0.34197E-08   -0.12561E-07  7952   0.257E-03    0.275E-03
DAV:  11    -0.182669606817E+03   -0.52813E-07   -0.18794E-07  6896   0.199E-03    0.128E-03
DAV:  12    -0.182669606802E+03    0.15007E-07   -0.20720E-08  4672   0.122E-03    0.903E-04
DAV:  13    -0.182669606800E+03    0.15716E-08   -0.89971E-08  6560   0.139E-03
   5 F= -.18266961E+03 E0= -.18266961E+03  d E =-.233878E-01
 curvature:  -0.37 expect dE=-0.144E-01 dE for cont linesearch -0.188E-07
 trial: gam= 0.56077 g(F)=  0.387E-01 g(S)=  0.000E+00 ort = 0.598E-04 (trialstep = 0.945E+00)
 search vector abs. value=  0.611E-01
 bond charge predicted
       N       E                     dE             d eps       ncg     rms          rms(c)
DAV:   1    -0.182610265732E+03    0.59341E-01   -0.18780E+01  6336   0.268E+01    0.178E+00
DAV:   2    -0.182694857702E+03   -0.84592E-01   -0.91645E-01  7992   0.491E+00    0.573E-01
DAV:   3    -0.182695712862E+03   -0.85516E-03   -0.25588E-02  9072   0.104E+00    0.434E-01
DAV:   4    -0.182695033960E+03    0.67890E-03   -0.29461E-03  9144   0.388E-01    0.218E-01
DAV:   5    -0.182694906021E+03    0.12794E-03   -0.93005E-04  9400   0.247E-01    0.678E-02
DAV:   6    -0.182694904257E+03    0.17635E-05   -0.40799E-04  8904   0.127E-01    0.675E-02
DAV:   7    -0.182694905797E+03   -0.15396E-05   -0.48284E-05  9024   0.458E-02    0.440E-02
DAV:   8    -0.182694911752E+03   -0.59558E-05   -0.50247E-05  7536   0.369E-02    0.164E-02
DAV:   9    -0.182694908990E+03    0.27629E-05   -0.58009E-06  8744   0.209E-02    0.950E-03
DAV:  10    -0.182694908599E+03    0.39103E-06   -0.87778E-06  9008   0.126E-02    0.383E-03
DAV:  11    -0.182694908652E+03   -0.53267E-07   -0.54897E-07  7656   0.359E-03    0.265E-03
DAV:  12    -0.182694908700E+03   -0.48320E-07   -0.87682E-08  6128   0.156E-03    0.941E-04
DAV:  13    -0.182694908698E+03    0.20809E-08   -0.19875E-08  4528   0.105E-03
   6 F= -.18269491E+03 E0= -.18269491E+03  d E =-.253019E-01
 trial-energy change:   -0.025302  1 .order   -0.025416   -0.036571   -0.014260
 step:   1.5815(harm=  1.5489)  dis= 0.01585  next Energy=  -182.699676 (dE=-0.301E-01)
 bond charge predicted
       N       E                     dE             d eps       ncg     rms          rms(c)
DAV:   1    -0.182661623933E+03    0.33285E-01   -0.85166E+00  6336   0.180E+01    0.117E+00
DAV:   2    -0.182699510606E+03   -0.37887E-01   -0.41040E-01  7968   0.330E+00    0.383E-01
DAV:   3    -0.182699899182E+03   -0.38858E-03   -0.11470E-02  8992   0.692E-01    0.290E-01
DAV:   4    -0.182699582386E+03    0.31680E-03   -0.14728E-03  9176   0.275E-01    0.136E-01
DAV:   5    -0.182699537883E+03    0.44503E-04   -0.42471E-04  9312   0.163E-01    0.467E-02
DAV:   6    -0.182699532358E+03    0.55250E-05   -0.20575E-04  8904   0.911E-02    0.470E-02
DAV:   7    -0.182699533379E+03   -0.10207E-05   -0.23804E-05  8896   0.317E-02    0.295E-02
DAV:   8    -0.182699536001E+03   -0.26225E-05   -0.19095E-05  7784   0.224E-02    0.104E-02
DAV:   9    -0.182699535021E+03    0.98006E-06   -0.20192E-06  8936   0.126E-02    0.574E-03
DAV:  10    -0.182699534931E+03    0.90306E-07   -0.35984E-06  8736   0.789E-03    0.247E-03
DAV:  11    -0.182699534946E+03   -0.15334E-07   -0.22867E-07  7128   0.238E-03    0.181E-03
DAV:  12    -0.182699534966E+03   -0.19743E-07   -0.35638E-08  5144   0.101E-03    0.615E-04
DAV:  13    -0.182699534966E+03    0.30923E-09   -0.10424E-08  3904   0.743E-04
   7 F= -.18269953E+03 E0= -.18269953E+03  d E =-.299282E-01
 curvature:  -1.22 expect dE=-0.198E-01 dE for cont linesearch -0.298E-05
 trial: gam= 0.41415 g(F)=  0.162E-01 g(S)=  0.000E+00 ort =-0.387E-03 (trialstep = 0.107E+01)
 search vector abs. value=  0.264E-01
 bond charge predicted
       N       E                     dE             d eps       ncg     rms          rms(c)
DAV:   1    -0.182669765122E+03    0.29770E-01   -0.11624E+01  6440   0.201E+01    0.973E-01
DAV:   2    -0.182711739592E+03   -0.41974E-01   -0.45492E-01  8016   0.346E+00    0.446E-01
DAV:   3    -0.182711916146E+03   -0.17655E-03   -0.10429E-02  8856   0.628E-01    0.348E-01
DAV:   4    -0.182711456201E+03    0.45994E-03   -0.17524E-03  8984   0.295E-01    0.139E-01
DAV:   5    -0.182711405761E+03    0.50440E-04   -0.48770E-04  8944   0.175E-01    0.418E-02
DAV:   6    -0.182711401777E+03    0.39841E-05   -0.21828E-04  8904   0.820E-02    0.332E-02
DAV:   7    -0.182711403328E+03   -0.15512E-05   -0.28009E-05  9184   0.264E-02    0.202E-02
DAV:   8    -0.182711403632E+03   -0.30428E-06   -0.99530E-06  8912   0.200E-02    0.986E-03
DAV:   9    -0.182711403798E+03   -0.16562E-06   -0.20055E-06  8544   0.802E-03    0.458E-03
DAV:  10    -0.182711403655E+03    0.14332E-06   -0.84498E-07  8072   0.488E-03    0.189E-03
DAV:  11    -0.182711403676E+03   -0.21108E-07   -0.28591E-07  7352   0.214E-03    0.154E-03
DAV:  12    -0.182711403664E+03    0.11663E-07   -0.91215E-09  4016   0.843E-04    0.845E-04
DAV:  13    -0.182711403646E+03    0.17662E-07   -0.24243E-08  4776   0.113E-03    0.169E-04
DAV:  14    -0.182711403646E+03    0.46202E-09   -0.89525E-09  3720   0.587E-04
   8 F= -.18271140E+03 E0= -.18271140E+03  d E =-.118687E-01
 trial-energy change:   -0.011869  1 .order   -0.011840   -0.017235   -0.006444
 step:   1.6968(harm=  1.7127)  dis= 0.01243  next Energy=  -182.713286 (dE=-0.138E-01)
 bond charge predicted
       N       E                     dE             d eps       ncg     rms          rms(c)
DAV:   1    -0.182699476288E+03    0.11927E-01   -0.39443E+00  6440   0.117E+01    0.555E-01
DAV:   2    -0.182713489672E+03   -0.14013E-01   -0.15212E-01  8000   0.201E+00    0.259E-01
DAV:   3    -0.182713550203E+03   -0.60530E-04   -0.35009E-03  8840   0.364E-01    0.202E-01
DAV:   4    -0.182713387555E+03    0.16265E-03   -0.67098E-04  8736   0.183E-01    0.683E-02
DAV:   5    -0.182713378069E+03    0.94856E-05   -0.15844E-04  9000   0.946E-02    0.261E-02
DAV:   6    -0.182713375156E+03    0.29136E-05   -0.83610E-05  9008   0.506E-02    0.196E-02
DAV:   7    -0.182713375455E+03   -0.29925E-06   -0.96682E-06  9056   0.170E-02    0.111E-02
DAV:   8    -0.182713375727E+03   -0.27184E-06   -0.37208E-06  8856   0.116E-02    0.562E-03
DAV:   9    -0.182713375737E+03   -0.99717E-08   -0.59662E-07  8168   0.461E-03    0.254E-03
DAV:  10    -0.182713375692E+03    0.44787E-07   -0.32866E-07  7016   0.297E-03    0.954E-04
DAV:  11    -0.182713375701E+03   -0.84910E-08   -0.93072E-08  6856   0.129E-03
   9 F= -.18271338E+03 E0= -.18271338E+03  d E =-.138407E-01
 curvature:  -1.40 expect dE=-0.821E-02 dE for cont linesearch -0.645E-05
 trial: gam= 0.32596 g(F)=  0.585E-02 g(S)=  0.000E+00 ort = 0.348E-03 (trialstep = 0.120E+01)
 search vector abs. value=  0.888E-02
 bond charge predicted
       N       E                     dE             d eps       ncg     rms          rms(c)
DAV:   1    -0.182697806305E+03    0.15569E-01   -0.48273E+00  6352   0.129E+01    0.601E-01
DAV:   2    -0.182717198840E+03   -0.19393E-01   -0.21250E-01  8120   0.246E+00    0.299E-01
DAV:   3    -0.182717292931E+03   -0.94091E-04   -0.57715E-03  9040   0.528E-01    0.204E-01
DAV:   4    -0.182717085617E+03    0.20731E-03   -0.64097E-04  9112   0.168E-01    0.128E-01
DAV:   5    -0.182716990645E+03    0.94971E-04   -0.33238E-04  8368   0.125E-01    0.320E-02
DAV:   6    -0.182716996604E+03   -0.59584E-05   -0.92419E-05  8936   0.505E-02    0.281E-02
DAV:   7    -0.182716995865E+03    0.73870E-06   -0.89113E-06  9024   0.185E-02    0.243E-02
DAV:   8    -0.182716995877E+03   -0.12235E-07   -0.38248E-06  8768   0.111E-02    0.749E-03
DAV:   9    -0.182716995952E+03   -0.74186E-07   -0.11097E-06  9200   0.699E-03    0.253E-03
DAV:  10    -0.182716995943E+03    0.84001E-08   -0.32905E-07  8672   0.398E-03    0.238E-03
DAV:  11    -0.182716995943E+03    0.44383E-09   -0.87300E-08  6968   0.152E-03
  10 F= -.18271700E+03 E0= -.18271700E+03  d E =-.362024E-02
 trial-energy change:   -0.003620  1 .order   -0.003624   -0.007134   -0.000114
 step:   1.2166(harm=  1.2166)  dis= 0.00498  next Energy=  -182.717001 (dE=-0.363E-02)
 bond charge predicted
       N       E                     dE             d eps       ncg     rms          rms(c)
DAV:   1    -0.182716991868E+03    0.40751E-05   -0.12763E-03  6592   0.210E-01    0.947E-03
DAV:   2    -0.182716996935E+03   -0.50665E-05   -0.55089E-05  8256   0.388E-02    0.486E-03
DAV:   3    -0.182716996931E+03    0.40163E-08   -0.14864E-06  9088   0.846E-03    0.334E-03
DAV:   4    -0.182716996917E+03    0.13526E-07   -0.18069E-07  8400   0.268E-03    0.195E-03
DAV:   5    -0.182716996897E+03    0.20387E-07   -0.10017E-07  7040   0.211E-03    0.477E-04
DAV:   6    -0.182716996899E+03   -0.26448E-08   -0.24755E-08  4640   0.106E-03
  11 F= -.18271700E+03 E0= -.18271700E+03  d E =-.362120E-02
 curvature:  -0.91 expect dE=-0.604E-02 dE for cont linesearch -0.408E-08
 trial: gam= 1.15390 g(F)=  0.667E-02 g(S)=  0.000E+00 ort =-0.633E-05 (trialstep = 0.577E+00)
 search vector abs. value=  0.185E-01
 bond charge predicted
       N       E                     dE             d eps       ncg     rms          rms(c)
DAV:   1    -0.182710474994E+03    0.65219E-02   -0.22257E+00  6336   0.868E+00    0.485E-01
DAV:   2    -0.182719873915E+03   -0.93989E-02   -0.10204E-01  7904   0.168E+00    0.195E-01
DAV:   3    -0.182720013466E+03   -0.13955E-03   -0.30405E-03  9232   0.352E-01    0.130E-01
DAV:   4    -0.182719929041E+03    0.84424E-04   -0.30896E-04  9256   0.117E-01    0.698E-02
DAV:   5    -0.182719914530E+03    0.14511E-04   -0.15777E-04  9336   0.908E-02    0.231E-02
DAV:   6    -0.182719911434E+03    0.30956E-05   -0.43439E-05  8760   0.390E-02    0.216E-02
DAV:   7    -0.182719911368E+03    0.65982E-07   -0.71449E-06  9120   0.131E-02    0.160E-02
DAV:   8    -0.182719911363E+03    0.53114E-08   -0.15315E-06  8568   0.708E-03    0.650E-03
DAV:   9    -0.182719911383E+03   -0.19947E-07   -0.50934E-07  8680   0.466E-03    0.256E-03
DAV:  10    -0.182719911354E+03    0.29333E-07   -0.16769E-07  7832   0.223E-03    0.164E-03
DAV:  11    -0.182719911359E+03   -0.53806E-08   -0.58392E-08  6200   0.118E-03
  12 F= -.18271991E+03 E0= -.18271991E+03  d E =-.291446E-02
 trial-energy change:   -0.002914  1 .order   -0.002880   -0.003845   -0.001915
 step:   1.0560(harm=  1.1495)  dis= 0.00738  next Energy=  -182.720726 (dE=-0.373E-02)
 bond charge predicted
       N       E                     dE             d eps       ncg     rms          rms(c)
DAV:   1    -0.182714304893E+03    0.56065E-02   -0.15331E+00  6336   0.720E+00    0.400E-01
DAV:   2    -0.182720770333E+03   -0.64654E-02   -0.70172E-02  7912   0.139E+00    0.162E-01
DAV:   3    -0.182720867462E+03   -0.97129E-04   -0.20907E-03  9256   0.291E-01    0.108E-01
DAV:   4    -0.182720809056E+03    0.58405E-04   -0.20748E-04  9240   0.954E-02    0.577E-02
DAV:   5    -0.182720798814E+03    0.10243E-04   -0.10737E-04  9344   0.749E-02    0.191E-02
DAV:   6    -0.182720796844E+03    0.19697E-05   -0.29442E-05  8816   0.320E-02    0.179E-02
DAV:   7    -0.182720796760E+03    0.83721E-07   -0.47728E-06  9152   0.108E-02    0.132E-02
DAV:   8    -0.182720796736E+03    0.24345E-07   -0.10515E-06  8512   0.591E-03    0.526E-03
DAV:   9    -0.182720796742E+03   -0.58535E-08   -0.34802E-07  8664   0.385E-03    0.212E-03
DAV:  10    -0.182720796721E+03    0.20558E-07   -0.13098E-07  7272   0.193E-03    0.129E-03
DAV:  11    -0.182720796728E+03   -0.69886E-08   -0.28699E-08  4928   0.931E-04
  13 F= -.18272080E+03 E0= -.18272080E+03  d E =-.379983E-02
 curvature:  -1.55 expect dE=-0.319E-02 dE for cont linesearch -0.118E-04
 trial: gam= 0.26470 g(F)=  0.206E-02 g(S)=  0.000E+00 ort = 0.375E-03 (trialstep = 0.673E+00)
 search vector abs. value=  0.355E-02
 bond charge predicted
       N       E                     dE             d eps       ncg     rms          rms(c)
DAV:   1    -0.182719591750E+03    0.12050E-02   -0.51496E-01  6336   0.415E+00    0.318E-01
DAV:   2    -0.182721788246E+03   -0.21965E-02   -0.24122E-02  7976   0.833E-01    0.108E-01
DAV:   3    -0.182721802305E+03   -0.14059E-04   -0.76435E-04  8904   0.199E-01    0.659E-02
DAV:   4    -0.182721788613E+03    0.13692E-04   -0.70572E-05  9280   0.582E-02    0.397E-02
DAV:   5    -0.182721785156E+03    0.34571E-05   -0.33404E-05  9072   0.443E-02    0.804E-03
DAV:   6    -0.182721785316E+03   -0.16005E-06   -0.76609E-06  8984   0.179E-02    0.809E-03
DAV:   7    -0.182721785397E+03   -0.81454E-07   -0.88488E-07  8904   0.443E-03    0.593E-03
DAV:   8    -0.182721785440E+03   -0.43179E-07   -0.53664E-07  8312   0.430E-03    0.224E-03
DAV:   9    -0.182721785439E+03    0.13715E-08   -0.68175E-08  6080   0.180E-03
  14 F= -.18272179E+03 E0= -.18272179E+03  d E =-.988711E-03
 trial-energy change:   -0.000989  1 .order   -0.000987   -0.001451   -0.000522
 step:   1.0505(harm=  1.0505)  dis= 0.00299  next Energy=  -182.721930 (dE=-0.113E-02)
 bond charge predicted
       N       E                     dE             d eps       ncg     rms          rms(c)
DAV:   1    -0.182721239981E+03    0.54546E-03   -0.16225E-01  6336   0.233E+00    0.179E-01
DAV:   2    -0.182721930157E+03   -0.69018E-03   -0.75860E-03  7992   0.467E-01    0.601E-02
DAV:   3    -0.182721934606E+03   -0.44492E-05   -0.24067E-04  8920   0.111E-01    0.370E-02
DAV:   4    -0.182721930200E+03    0.44056E-05   -0.22732E-05  9312   0.329E-02    0.222E-02
DAV:   5    -0.182721929235E+03    0.96560E-06   -0.10681E-05  9032   0.248E-02    0.454E-03
DAV:   6    -0.182721929246E+03   -0.11190E-07   -0.25136E-06  8976   0.103E-02    0.462E-03
DAV:   7    -0.182721929276E+03   -0.30406E-07   -0.30287E-07  8040   0.253E-03    0.333E-03
DAV:   8    -0.182721929286E+03   -0.98298E-08   -0.17095E-07  7272   0.251E-03    0.134E-03
DAV:   9    -0.182721929290E+03   -0.33615E-08   -0.23461E-08  4480   0.110E-03
  15 F= -.18272193E+03 E0= -.18272193E+03  d E =-.113256E-02
 curvature:  -0.86 expect dE=-0.607E-03 dE for cont linesearch -0.552E-08
 trial: gam= 0.39629 g(F)=  0.702E-03 g(S)=  0.000E+00 ort = 0.476E-05 (trialstep = 0.748E+00)
 search vector abs. value=  0.126E-02
 bond charge predicted
       N       E                     dE             d eps       ncg     rms          rms(c)
DAV:   1    -0.182721635990E+03    0.29330E-03   -0.23315E-01  6280   0.271E+00    0.103E-01
DAV:   2    -0.182722401161E+03   -0.76517E-03   -0.81738E-03  7928   0.473E-01    0.499E-02
DAV:   3    -0.182722402237E+03   -0.10754E-05   -0.18344E-04  8832   0.875E-02    0.388E-02
DAV:   4    -0.182722394177E+03    0.80597E-05   -0.19465E-05  8936   0.296E-02    0.207E-02
DAV:   5    -0.182722392114E+03    0.20627E-05   -0.12663E-05  8888   0.236E-02    0.464E-03
DAV:   6    -0.182722392257E+03   -0.14314E-06   -0.30126E-06  8848   0.106E-02    0.479E-03
DAV:   7    -0.182722392305E+03   -0.47337E-07   -0.27988E-07  8184   0.248E-03    0.315E-03
DAV:   8    -0.182722392280E+03    0.24538E-07   -0.11636E-07  7464   0.247E-03    0.146E-03
DAV:   9    -0.182722392284E+03   -0.37835E-08   -0.40529E-08  5584   0.117E-03
  16 F= -.18272239E+03 E0= -.18272239E+03  d E =-.462994E-03
 trial-energy change:   -0.000463  1 .order   -0.000461   -0.000526   -0.000396
 step:   2.4986(harm=  3.0140)  dis= 0.00666  next Energy=  -182.722880 (dE=-0.950E-03)
 bond charge predicted
       N       E                     dE             d eps       ncg     rms          rms(c)
DAV:   1    -0.182718743746E+03    0.36485E-02   -0.12745E+00  6280   0.634E+00    0.247E-01
DAV:   2    -0.182723000075E+03   -0.42563E-02   -0.45507E-02  7904   0.113E+00    0.120E-01
DAV:   3    -0.182723001612E+03   -0.15369E-05   -0.10432E-03  8952   0.217E-01    0.920E-02
DAV:   4    -0.182722959367E+03    0.42245E-04   -0.99659E-05  8928   0.701E-02    0.536E-02
DAV:   5    -0.182722944420E+03    0.14947E-04   -0.81258E-05  9024   0.622E-02    0.105E-02
DAV:   6    -0.182722945057E+03   -0.63760E-06   -0.18520E-05  8704   0.256E-02    0.110E-02
DAV:   7    -0.182722945346E+03   -0.28864E-06   -0.20029E-06  8712   0.600E-03    0.781E-03
DAV:   8    -0.182722945374E+03   -0.27605E-07   -0.74575E-07  8472   0.552E-03    0.453E-03
DAV:   9    -0.182722945432E+03   -0.58091E-07   -0.25313E-07  8256   0.255E-03    0.226E-03
DAV:  10    -0.182722945375E+03    0.56963E-07   -0.15437E-07  6616   0.231E-03    0.866E-04
DAV:  11    -0.182722945373E+03    0.17099E-08   -0.57094E-08  5472   0.955E-04
  17 F= -.18272295E+03 E0= -.18272295E+03  d E =-.101608E-02
 curvature:  -2.57 expect dE=-0.177E-02 dE for cont linesearch -0.243E-04
 trial: gam= 0.72625 g(F)=  0.689E-03 g(S)=  0.000E+00 ort = 0.109E-03 (trialstep = 0.916E+00)
 search vector abs. value=  0.151E-02
 bond charge predicted
       N       E                     dE             d eps       ncg     rms          rms(c)
DAV:   1    -0.182721678388E+03    0.12670E-02   -0.39647E-01  6336   0.366E+00    0.235E-01
DAV:   2    -0.182723325144E+03   -0.16468E-02   -0.17978E-02  7912   0.716E-01    0.741E-02
DAV:   3    -0.182723332202E+03   -0.70576E-05   -0.57196E-04  9096   0.182E-01    0.424E-02
DAV:   4    -0.182723316733E+03    0.15469E-04   -0.53406E-05  9256   0.493E-02    0.260E-02
DAV:   5    -0.182723311733E+03    0.49997E-05   -0.18574E-05  8848   0.317E-02    0.787E-03
DAV:   6    -0.182723311684E+03    0.49669E-07   -0.48891E-06  9096   0.137E-02    0.671E-03
DAV:   7    -0.182723311665E+03    0.19052E-07   -0.81665E-07  9024   0.700E-03    0.581E-03
DAV:   8    -0.182723311523E+03    0.14168E-06   -0.33489E-07  8480   0.319E-03    0.923E-04
DAV:   9    -0.182723311533E+03   -0.10288E-07   -0.61615E-08  6440   0.215E-03    0.549E-04
DAV:  10    -0.182723311532E+03    0.96770E-09   -0.11153E-08  4032   0.767E-04
  18 F= -.18272331E+03 E0= -.18272331E+03  d E =-.366159E-03
 trial-energy change:   -0.000366  1 .order   -0.000372   -0.000704   -0.000040
 step:   0.9755(harm=  0.9721)  dis= 0.00171  next Energy=  -182.723313 (dE=-0.367E-03)
 bond charge predicted
       N       E                     dE             d eps       ncg     rms          rms(c)
DAV:   1    -0.182723305895E+03    0.56386E-05   -0.16427E-03  6448   0.236E-01    0.152E-02
DAV:   2    -0.182723312778E+03   -0.68831E-05   -0.74719E-05  8056   0.466E-02    0.482E-03
DAV:   3    -0.182723312819E+03   -0.40956E-07   -0.23996E-06  9256   0.120E-02    0.277E-03
DAV:   4    -0.182723312734E+03    0.85176E-07   -0.21550E-07  7800   0.313E-03    0.179E-03
DAV:   5    -0.182723312705E+03    0.28311E-07   -0.83703E-08  7016   0.200E-03    0.510E-04
DAV:   6    -0.182723312693E+03    0.12013E-07   -0.16637E-08  4072   0.101E-03    0.217E-04
DAV:   7    -0.182723312690E+03    0.29358E-08   -0.96260E-09  3848   0.838E-04
  19 F= -.18272331E+03 E0= -.18272331E+03  d E =-.367317E-03
 curvature:  -0.95 expect dE=-0.528E-03 dE for cont linesearch -0.225E-07
 trial: gam= 0.95482 g(F)=  0.553E-03 g(S)=  0.000E+00 ort =-0.597E-05 (trialstep = 0.731E+00)
 search vector abs. value=  0.192E-02
 bond charge predicted
       N       E                     dE             d eps       ncg     rms          rms(c)
DAV:   1    -0.182722471153E+03    0.84154E-03   -0.29919E-01  6208   0.312E+00    0.159E-01
DAV:   2    -0.182723591248E+03   -0.11201E-02   -0.11786E-02  8128   0.577E-01    0.554E-02
DAV:   3    -0.182723592966E+03   -0.17178E-05   -0.28432E-04  8936   0.108E-01    0.379E-02
DAV:   4    -0.182723580734E+03    0.12233E-04   -0.38852E-05  9240   0.432E-02    0.166E-02
DAV:   5    -0.182723579836E+03    0.89738E-06   -0.14595E-05  9072   0.234E-02    0.912E-03
DAV:   6    -0.182723579868E+03   -0.31363E-07   -0.24114E-06  8840   0.902E-03    0.708E-03
DAV:   7    -0.182723579939E+03   -0.71654E-07   -0.25261E-07  8888   0.262E-03    0.413E-03
DAV:   8    -0.182723579986E+03   -0.46541E-07   -0.71723E-08  6736   0.187E-03    0.726E-04
DAV:   9    -0.182723579986E+03   -0.72760E-11   -0.18880E-08  4304   0.126E-03
  20 F= -.18272358E+03 E0= -.18272358E+03  d E =-.267296E-03
 trial-energy change:   -0.000267  1 .order   -0.000270   -0.000400   -0.000140
 step:   1.1790(harm=  1.1261)  dis= 0.00264  next Energy=  -182.723622 (dE=-0.310E-03)
 bond charge predicted
       N       E                     dE             d eps       ncg     rms          rms(c)
DAV:   1    -0.182723215145E+03    0.36484E-03   -0.11230E-01  6208   0.191E+00    0.975E-02
DAV:   2    -0.182723633840E+03   -0.41869E-03   -0.44061E-03  8144   0.351E-01    0.335E-02
DAV:   3    -0.182723634562E+03   -0.72224E-06   -0.10549E-04  8976   0.646E-02    0.231E-02
DAV:   4    -0.182723630011E+03    0.45510E-05   -0.15025E-05  9224   0.265E-02    0.941E-03
DAV:   5    -0.182723629801E+03    0.21031E-06   -0.52278E-06  8944   0.138E-02    0.558E-03
DAV:   6    -0.182723629805E+03   -0.45657E-08   -0.84111E-07  8888   0.542E-03    0.424E-03
DAV:   7    -0.182723629840E+03   -0.34615E-07   -0.87578E-08  7952   0.171E-03    0.237E-03
DAV:   8    -0.182723629860E+03   -0.19711E-07   -0.25119E-08  4912   0.124E-03    0.404E-04
DAV:   9    -0.182723629859E+03    0.25830E-09   -0.13087E-08  3992   0.104E-03
  21 F= -.18272363E+03 E0= -.18272363E+03  d E =-.317169E-03
 curvature:  -1.94 expect dE=-0.475E-03 dE for cont linesearch -0.468E-06
 trial: gam= 0.32296 g(F)=  0.245E-03 g(S)=  0.000E+00 ort = 0.215E-04 (trialstep = 0.821E+00)
 search vector abs. value=  0.459E-03
 bond charge predicted
       N       E                     dE             d eps       ncg     rms          rms(c)
DAV:   1    -0.182723506763E+03    0.12310E-03   -0.84075E-02  6336   0.152E+00    0.764E-02
DAV:   2    -0.182723784602E+03   -0.27784E-03   -0.30559E-03  7928   0.309E-01    0.391E-02
DAV:   3    -0.182723781154E+03    0.34481E-05   -0.82064E-05  8856   0.731E-02    0.244E-02
DAV:   4    -0.182723777226E+03    0.39277E-05   -0.10789E-05  9336   0.205E-02    0.132E-02
DAV:   5    -0.182723776614E+03    0.61233E-06   -0.51421E-06  8440   0.155E-02    0.285E-03
DAV:   6    -0.182723776697E+03   -0.82498E-07   -0.97926E-07  8760   0.577E-03    0.278E-03
DAV:   7    -0.182723776708E+03   -0.11110E-07   -0.49945E-08  6576   0.139E-03    0.194E-03
DAV:   8    -0.182723776712E+03   -0.41800E-08   -0.37858E-08  5480   0.139E-03
  22 F= -.18272378E+03 E0= -.18272378E+03  d E =-.146853E-03
 trial-energy change:   -0.000147  1 .order   -0.000148   -0.000206   -0.000090
 step:   1.5660(harm=  1.4572)  dis= 0.00254  next Energy=  -182.723817 (dE=-0.187E-03)
 bond charge predicted
       N       E                     dE             d eps       ncg     rms          rms(c)
DAV:   1    -0.182723588869E+03    0.18784E-03   -0.69356E-02  6336   0.138E+00    0.694E-02
DAV:   2    -0.182723817903E+03   -0.22903E-03   -0.25203E-03  7936   0.281E-01    0.356E-02
DAV:   3    -0.182723815034E+03    0.28695E-05   -0.67727E-05  8856   0.664E-02    0.222E-02
DAV:   4    -0.182723811770E+03    0.32637E-05   -0.90028E-06  9344   0.188E-02    0.120E-02
DAV:   5    -0.182723811281E+03    0.48928E-06   -0.42564E-06  8432   0.141E-02    0.260E-03
DAV:   6    -0.182723811346E+03   -0.64774E-07   -0.81504E-07  8832   0.528E-03    0.253E-03
DAV:   7    -0.182723811356E+03   -0.99790E-08   -0.37985E-08  5624   0.126E-03
  23 F= -.18272381E+03 E0= -.18272381E+03  d E =-.181496E-03
 curvature:  -1.29 expect dE=-0.378E-03 dE for cont linesearch -0.115E-05
 trial: gam= 1.29516 g(F)=  0.293E-03 g(S)=  0.000E+00 ort =-0.202E-04 (trialstep = 0.441E+00)
 search vector abs. value=  0.101E-02
 bond charge predicted
       N       E                     dE             d eps       ncg     rms          rms(c)
DAV:   1    -0.182723765760E+03    0.45585E-04   -0.53800E-02  6248   0.115E+00    0.393E-02
DAV:   2    -0.182723918851E+03   -0.15309E-03   -0.16535E-03  8040   0.221E-01    0.251E-02
DAV:   3    -0.182723916851E+03    0.19997E-05   -0.33957E-05  9088   0.366E-02    0.171E-02
DAV:   4    -0.182723913159E+03    0.36919E-05   -0.55270E-06  8968   0.147E-02    0.802E-03
DAV:   5    -0.182723912536E+03    0.62290E-06   -0.38066E-06  8832   0.113E-02    0.207E-03
DAV:   6    -0.182723912563E+03   -0.26452E-07   -0.66315E-07  8624   0.508E-03    0.216E-03
DAV:   7    -0.182723912527E+03    0.35878E-07   -0.44323E-08  5648   0.181E-03    0.164E-03
DAV:   8    -0.182723912495E+03    0.31789E-07   -0.40135E-08  5880   0.101E-03    0.495E-04
DAV:   9    -0.182723912498E+03   -0.33215E-08   -0.79286E-09  3960   0.777E-04
  24 F= -.18272391E+03 E0= -.18272391E+03  d E =-.101143E-03
 trial-energy change:   -0.000101  1 .order   -0.000098   -0.000117   -0.000079
 step:   0.9142(harm=  1.3529)  dis= 0.00236  next Energy=  -182.723959 (dE=-0.147E-03)
 bond charge predicted
       N       E                     dE             d eps       ncg     rms          rms(c)
DAV:   1    -0.182723804603E+03    0.10789E-03   -0.62139E-02  6248   0.123E+00    0.422E-02
DAV:   2    -0.182723981167E+03   -0.17656E-03   -0.19068E-03  8040   0.237E-01    0.268E-02
DAV:   3    -0.182723978881E+03    0.22867E-05   -0.39075E-05  9064   0.390E-02    0.183E-02
DAV:   4    -0.182723974621E+03    0.42598E-05   -0.64043E-06  8976   0.157E-02    0.851E-03
DAV:   5    -0.182723973929E+03    0.69182E-06   -0.43398E-06  8816   0.120E-02    0.220E-03
DAV:   6    -0.182723973959E+03   -0.30086E-07   -0.75597E-07  8744   0.544E-03    0.232E-03
DAV:   7    -0.182723973920E+03    0.38941E-07   -0.51414E-08  6064   0.193E-03    0.178E-03
DAV:   8    -0.182723973884E+03    0.35630E-07   -0.48042E-08  6360   0.108E-03    0.546E-04
DAV:   9    -0.182723973890E+03   -0.54715E-08   -0.76587E-09  3976   0.743E-04
  25 F= -.18272397E+03 E0= -.18272397E+03  d E =-.162534E-03
 curvature:  -1.97 expect dE=-0.475E-03 dE for cont linesearch -0.140E-04
 ZBRENT: increasing intervall
 opt :   1.8615  next Energy=  -182.723964 (dE=-0.153E-03)
 bond charge predicted
       N       E                     dE             d eps       ncg     rms          rms(c)
DAV:   1    -0.182723268587E+03    0.70530E-03   -0.24855E-01  6248   0.247E+00    0.842E-02
DAV:   2    -0.182723977286E+03   -0.70870E-03   -0.76546E-03  8024   0.475E-01    0.533E-02
DAV:   3    -0.182723967975E+03    0.93113E-05   -0.15431E-04  9032   0.755E-02    0.364E-02
DAV:   4    -0.182723950901E+03    0.17074E-04   -0.26203E-05  8736   0.303E-02    0.160E-02
DAV:   5    -0.182723948634E+03    0.22676E-05   -0.17270E-05  8800   0.236E-02    0.417E-03
DAV:   6    -0.182723948801E+03   -0.16729E-06   -0.31660E-06  8624   0.110E-02    0.463E-03
DAV:   7    -0.182723948686E+03    0.11532E-06   -0.20637E-07  8248   0.361E-03    0.402E-03
DAV:   8    -0.182723948621E+03    0.64552E-07   -0.15187E-07  7984   0.203E-03    0.116E-03
DAV:   9    -0.182723948615E+03    0.66320E-08   -0.51243E-08  5512   0.154E-03
  26 F= -.18272395E+03 E0= -.18272395E+03  d E =-.137259E-03
 curvature:   1.38 expect dE= 0.118E-02 dE for cont linesearch  0.242E-04
 ZBRENT: bracketing found
 ZBRENT: interpolating
 opt :   1.2826  next Energy=  -182.723989 (dE=-0.178E-03)
 bond charge predicted
       N       E                     dE             d eps       ncg     rms          rms(c)
DAV:   1    -0.182723730269E+03    0.21835E-03   -0.92831E-02  6248   0.151E+00    0.527E-02
DAV:   2    -0.182723996654E+03   -0.26639E-03   -0.28862E-03  8016   0.297E-01    0.342E-02
DAV:   3    -0.182723992659E+03    0.39950E-05   -0.61311E-05  9040   0.520E-02    0.231E-02
DAV:   4    -0.182723986870E+03    0.57895E-05   -0.90777E-06  9056   0.198E-02    0.121E-02
DAV:   5    -0.182723985211E+03    0.16584E-05   -0.68616E-06  8832   0.153E-02    0.333E-03
DAV:   6    -0.182723985360E+03   -0.14822E-06   -0.13075E-06  9144   0.675E-03    0.289E-03
DAV:   7    -0.182723985360E+03   -0.21828E-10   -0.96506E-08  7232   0.245E-03
  27 F= -.18272399E+03 E0= -.18272399E+03  d E =-.174004E-03
 curvature:  -0.89 expect dE=-0.357E-03 dE for cont linesearch -0.442E-07
 trial: gam= 1.24681 g(F)=  0.401E-03 g(S)=  0.000E+00 ort =-0.708E-05 (trialstep = 0.315E+00)
 search vector abs. value=  0.195E-02
 bond charge predicted
       N       E                     dE             d eps       ncg     rms          rms(c)
DAV:   1    -0.182723872586E+03    0.11277E-03   -0.49981E-02  6336   0.123E+00    0.779E-02
DAV:   2    -0.182724098203E+03   -0.22562E-03   -0.24092E-03  7936   0.251E-01    0.284E-02
DAV:   3    -0.182724100703E+03   -0.24993E-05   -0.67528E-05  9552   0.506E-02    0.202E-02
DAV:   4    -0.182724099283E+03    0.14192E-05   -0.76571E-06  8536   0.162E-02    0.987E-03
DAV:   5    -0.182724099061E+03    0.22226E-06   -0.29600E-06  9264   0.107E-02    0.443E-03
DAV:   6    -0.182724099028E+03    0.33266E-07   -0.77900E-07  8944   0.568E-03    0.436E-03
DAV:   7    -0.182724099056E+03   -0.27798E-07   -0.84139E-08  7624   0.167E-03    0.217E-03
DAV:   8    -0.182724099060E+03   -0.46421E-08   -0.15835E-08  3944   0.794E-04
  28 F= -.18272410E+03 E0= -.18272410E+03  d E =-.113701E-03
 trial-energy change:   -0.000114  1 .order   -0.000112   -0.000124   -0.000101
 step:   0.9477(harm=  1.7161)  dis= 0.00281  next Energy=  -182.724213 (dE=-0.227E-03)
 bond charge predicted
       N       E                     dE             d eps       ncg     rms          rms(c)
DAV:   1    -0.182723331516E+03    0.76754E-03   -0.20190E-01  6336   0.248E+00    0.156E-01
DAV:   2    -0.182724245833E+03   -0.91432E-03   -0.97713E-03  7936   0.507E-01    0.575E-02
DAV:   3    -0.182724255753E+03   -0.99198E-05   -0.27765E-04  9568   0.104E-01    0.407E-02
DAV:   4    -0.182724249543E+03    0.62103E-05   -0.29957E-05  8872   0.320E-02    0.211E-02
DAV:   5    -0.182724248482E+03    0.10605E-05   -0.12305E-05  9128   0.226E-02    0.869E-03
DAV:   6    -0.182724248382E+03    0.10005E-06   -0.32527E-06  8800   0.117E-02    0.866E-03
DAV:   7    -0.182724248472E+03   -0.89793E-07   -0.35378E-07  8944   0.303E-03    0.482E-03
DAV:   8    -0.182724248499E+03   -0.27096E-07   -0.97018E-08  7568   0.176E-03    0.115E-03
DAV:   9    -0.182724248486E+03    0.13479E-07   -0.68296E-09  3968   0.991E-04    0.497E-04
DAV:  10    -0.182724248477E+03    0.87857E-08   -0.32672E-08  5064   0.900E-04
  29 F= -.18272425E+03 E0= -.18272425E+03  d E =-.263117E-03
 curvature:  -2.99 expect dE=-0.516E-03 dE for cont linesearch -0.325E-04
 ZBRENT: increasing intervall
 opt :   2.2134  next Energy=  -182.724212 (dE=-0.227E-03)
 bond charge predicted
       N       E                     dE             d eps       ncg     rms          rms(c)
DAV:   1    -0.182720499424E+03    0.37491E-02   -0.80722E-01  6336   0.495E+00    0.314E-01
DAV:   2    -0.182724188866E+03   -0.36894E-02   -0.39439E-02  7944   0.103E+00    0.117E-01
DAV:   3    -0.182724225695E+03   -0.36829E-04   -0.11392E-03  9512   0.216E-01    0.817E-02
DAV:   4    -0.182724200910E+03    0.24785E-04   -0.11765E-04  9288   0.632E-02    0.459E-02
DAV:   5    -0.182724195267E+03    0.56423E-05   -0.51180E-05  9000   0.485E-02    0.170E-02
DAV:   6    -0.182724195184E+03    0.83430E-07   -0.13126E-05  8808   0.228E-02    0.173E-02
DAV:   7    -0.182724195454E+03   -0.27006E-06   -0.13727E-06  9120   0.540E-03    0.108E-02
DAV:   8    -0.182724195655E+03   -0.20107E-06   -0.55208E-07  8496   0.482E-03    0.241E-03
DAV:   9    -0.182724195623E+03    0.32105E-07   -0.54993E-08  6952   0.222E-03    0.114E-03
DAV:  10    -0.182724195605E+03    0.17957E-07   -0.11701E-07  6176   0.158E-03    0.707E-04
DAV:  11    -0.182724195602E+03    0.30050E-08   -0.92161E-09  3960   0.711E-04
  30 F= -.18272420E+03 E0= -.18272420E+03  d E =-.210242E-03
 curvature:   3.36 expect dE= 0.238E-02 dE for cont linesearch  0.743E-04
 ZBRENT: bracketing found
 ZBRENT: interpolating
 opt :   1.4695  next Energy=  -182.724286 (dE=-0.301E-03)
 bond charge predicted
       N       E                     dE             d eps       ncg     rms          rms(c)
DAV:   1    -0.182723012836E+03    0.11828E-02   -0.27901E-01  6336   0.291E+00    0.184E-01
DAV:   2    -0.182724272333E+03   -0.12595E-02   -0.13498E-02  7920   0.593E-01    0.662E-02
DAV:   3    -0.182724289032E+03   -0.16699E-04   -0.37308E-04  9464   0.115E-01    0.481E-02
DAV:   4    -0.182724278849E+03    0.10183E-04   -0.46430E-05  8864   0.415E-02    0.216E-02
DAV:   5    -0.182724278565E+03    0.28395E-06   -0.14236E-05  9264   0.259E-02    0.102E-02
DAV:   6    -0.182724278551E+03    0.14545E-07   -0.43576E-06  8880   0.128E-02    0.984E-03
DAV:   7    -0.182724278628E+03   -0.76870E-07   -0.54170E-07  8928   0.530E-03    0.442E-03
DAV:   8    -0.182724278695E+03   -0.67081E-07   -0.19421E-07  7392   0.211E-03    0.147E-03
DAV:   9    -0.182724278702E+03   -0.69413E-08   -0.20041E-08  4528   0.142E-03
  31 F= -.18272428E+03 E0= -.18272428E+03  d E =-.293342E-03
 curvature:  -1.72 expect dE=-0.472E-03 dE for cont linesearch -0.247E-07
 trial: gam= 0.64432 g(F)=  0.274E-03 g(S)=  0.000E+00 ort =-0.530E-05 (trialstep = 0.546E+00)
 search vector abs. value=  0.108E-02
 bond charge predicted
       N       E                     dE             d eps       ncg     rms          rms(c)
DAV:   1    -0.182724058322E+03    0.22037E-03   -0.81307E-02  6336   0.148E+00    0.888E-02
DAV:   2    -0.182724392833E+03   -0.33451E-03   -0.35926E-03  7912   0.312E-01    0.388E-02
DAV:   3    -0.182724395424E+03   -0.25911E-05   -0.10014E-04  9432   0.612E-02    0.219E-02
DAV:   4    -0.182724392152E+03    0.32716E-05   -0.11884E-05  9120   0.211E-02    0.111E-02
DAV:   5    -0.182724391970E+03    0.18172E-06   -0.41532E-06  9200   0.133E-02    0.479E-03
DAV:   6    -0.182724392011E+03   -0.40844E-07   -0.89607E-07  8656   0.550E-03    0.438E-03
DAV:   7    -0.182724392028E+03   -0.16946E-07   -0.67790E-08  7328   0.194E-03    0.296E-03
DAV:   8    -0.182724392038E+03   -0.97898E-08   -0.45860E-08  5752   0.124E-03
  32 F= -.18272439E+03 E0= -.18272439E+03  d E =-.113336E-03
 trial-energy change:   -0.000113  1 .order   -0.000114   -0.000148   -0.000081
 step:   1.4257(harm=  1.2047)  dis= 0.00299  next Energy=  -182.724453 (dE=-0.174E-03)
 bond charge predicted
       N       E                     dE             d eps       ncg     rms          rms(c)
DAV:   1    -0.182723566778E+03    0.82525E-03   -0.21127E-01  6336   0.239E+00    0.144E-01
DAV:   2    -0.182724440776E+03   -0.87400E-03   -0.93782E-03  7904   0.506E-01    0.629E-02
DAV:   3    -0.182724447828E+03   -0.70523E-05   -0.26605E-04  9472   0.101E-01    0.353E-02
DAV:   4    -0.182724439395E+03    0.84333E-05   -0.31202E-05  9184   0.343E-02    0.180E-02
DAV:   5    -0.182724438757E+03    0.63790E-06   -0.10705E-05  9216   0.217E-02    0.794E-03
DAV:   6    -0.182724438923E+03   -0.16545E-06   -0.22803E-06  8728   0.870E-03    0.708E-03
DAV:   7    -0.182724438941E+03   -0.17986E-07   -0.18096E-07  8760   0.307E-03    0.486E-03
DAV:   8    -0.182724438974E+03   -0.33397E-07   -0.12864E-07  7696   0.184E-03    0.119E-03
DAV:   9    -0.182724438966E+03    0.77162E-08   -0.18442E-08  4280   0.123E-03
  33 F= -.18272444E+03 E0= -.18272444E+03  d E =-.160265E-03
 curvature:  -2.13 expect dE=-0.297E-03 dE for cont linesearch -0.244E-05
 ZBRENT: interpolating
 opt :   1.2569  next Energy=  -182.724442 (dE=-0.163E-03)
 bond charge predicted
       N       E                     dE             d eps       ncg     rms          rms(c)
DAV:   1    -0.182724410527E+03    0.28447E-04   -0.77859E-03  6336   0.458E-01    0.272E-02
DAV:   2    -0.182724442825E+03   -0.32298E-04   -0.34237E-04  7960   0.960E-02    0.118E-02
DAV:   3    -0.182724443040E+03   -0.21555E-06   -0.94608E-06  9312   0.183E-02    0.684E-03
DAV:   4    -0.182724442702E+03    0.33795E-06   -0.11644E-06  8944   0.659E-03    0.340E-03
DAV:   5    -0.182724442657E+03    0.45813E-07   -0.41926E-07  9120   0.407E-03    0.145E-03
DAV:   6    -0.182724442670E+03   -0.12893E-07   -0.89834E-08  7296   0.176E-03    0.131E-03
DAV:   7    -0.182724442661E+03    0.88221E-08   -0.56794E-09  3856   0.672E-04
  34 F= -.18272444E+03 E0= -.18272444E+03  d E =-.163959E-03
 curvature:  -2.59 expect dE=-0.258E-03 dE for cont linesearch -0.198E-07
 trial: gam= 0.34733 g(F)=  0.996E-04 g(S)=  0.000E+00 ort =-0.287E-05 (trialstep = 0.688E+00)
 search vector abs. value=  0.228E-03
 bond charge predicted
       N       E                     dE             d eps       ncg     rms          rms(c)
DAV:   1    -0.182724395315E+03    0.47355E-04   -0.32290E-02  6304   0.907E-01    0.343E-02
DAV:   2    -0.182724489185E+03   -0.93870E-04   -0.10570E-03  8000   0.184E-01    0.188E-02
DAV:   3    -0.182724487685E+03    0.15001E-05   -0.28193E-05  9216   0.394E-02    0.131E-02
DAV:   4    -0.182724485067E+03    0.26179E-05   -0.52372E-06  9376   0.127E-02    0.669E-03
DAV:   5    -0.182724484381E+03    0.68598E-06   -0.31950E-06  8544   0.100E-02    0.262E-03
DAV:   6    -0.182724484381E+03    0.61846E-09   -0.96052E-07  8624   0.552E-03    0.183E-03
DAV:   7    -0.182724484361E+03    0.19856E-07   -0.95787E-08  7592   0.160E-03    0.194E-03
DAV:   8    -0.182724484346E+03    0.14665E-07   -0.10207E-08  4208   0.110E-03    0.989E-04
DAV:   9    -0.182724484333E+03    0.13017E-07   -0.36815E-08  5408   0.119E-03    0.405E-04
DAV:  10    -0.182724484330E+03    0.34670E-08   -0.52149E-09  3664   0.476E-04
  35 F= -.18272448E+03 E0= -.18272448E+03  d E =-.416689E-04
 trial-energy change:   -0.000042  1 .order   -0.000040   -0.000068   -0.000013
 step:   0.8206(harm=  0.8453)  dis= 0.00066  next Energy=  -182.724486 (dE=-0.429E-04)
 bond charge predicted
       N       E                     dE             d eps       ncg     rms          rms(c)
DAV:   1    -0.182724482295E+03    0.20382E-05   -0.11979E-03  6400   0.175E-01    0.648E-03
DAV:   2    -0.182724485703E+03   -0.34076E-05   -0.39115E-05  7992   0.354E-02    0.362E-03
DAV:   3    -0.182724485679E+03    0.23425E-07   -0.10439E-06  9208   0.761E-03    0.253E-03
DAV:   4    -0.182724485552E+03    0.12683E-06   -0.18629E-07  7608   0.242E-03    0.132E-03
DAV:   5    -0.182724485529E+03    0.23145E-07   -0.13008E-07  7888   0.197E-03    0.486E-04
DAV:   6    -0.182724485527E+03    0.22592E-08   -0.32616E-08  5016   0.110E-03
  36 F= -.18272449E+03 E0= -.18272449E+03  d E =-.428661E-04
 curvature:  -0.95 expect dE=-0.730E-04 dE for cont linesearch -0.433E-08
 trial: gam= 0.76956 g(F)=  0.767E-04 g(S)=  0.000E+00 ort = 0.102E-05 (trialstep = 0.715E+00)
 search vector abs. value=  0.213E-03
 bond charge predicted
       N       E                     dE             d eps       ncg     rms          rms(c)
DAV:   1    -0.182724406553E+03    0.78976E-04   -0.38315E-02  6352   0.109E+00    0.363E-02
DAV:   2    -0.182724529407E+03   -0.12285E-03   -0.13053E-03  8088   0.192E-01    0.171E-02
DAV:   3    -0.182724529918E+03   -0.51086E-06   -0.29576E-05  9048   0.343E-02    0.129E-02
DAV:   4    -0.182724528616E+03    0.13024E-05   -0.54763E-06  8696   0.146E-02    0.533E-03
DAV:   5    -0.182724528624E+03   -0.77525E-08   -0.19032E-06  8888   0.809E-03    0.371E-03
DAV:   6    -0.182724528495E+03    0.12825E-06   -0.70974E-07  8784   0.496E-03    0.220E-03
DAV:   7    -0.182724528486E+03    0.90331E-08   -0.92509E-08  6984   0.150E-03
  37 F= -.18272453E+03 E0= -.18272453E+03  d E =-.429594E-04
 trial-energy change:   -0.000043  1 .order   -0.000043   -0.000055   -0.000031
 step:   2.0722(harm=  1.6534)  dis= 0.00178  next Energy=  -182.724555 (dE=-0.699E-04)
 bond charge predicted
       N       E                     dE             d eps       ncg     rms          rms(c)
DAV:   1    -0.182724105574E+03    0.42292E-03   -0.13839E-01  6352   0.206E+00    0.690E-02
DAV:   2    -0.182724550468E+03   -0.44489E-03   -0.47313E-03  8080   0.366E-01    0.327E-02
DAV:   3    -0.182724552324E+03   -0.18555E-05   -0.10819E-04  8896   0.664E-02    0.246E-02
DAV:   4    -0.182724547522E+03    0.48017E-05   -0.19330E-05  8960   0.276E-02    0.107E-02
DAV:   5    -0.182724547473E+03    0.49033E-07   -0.70743E-06  8880   0.163E-02    0.685E-03
DAV:   6    -0.182724547017E+03    0.45559E-06   -0.26495E-06  9048   0.973E-03    0.412E-03
DAV:   7    -0.182724547006E+03    0.11449E-07   -0.36238E-07  8040   0.276E-03    0.248E-03
DAV:   8    -0.182724546982E+03    0.23665E-07   -0.96267E-08  7224   0.222E-03    0.846E-04
DAV:   9    -0.182724546978E+03    0.39945E-08   -0.73748E-08  6816   0.151E-03
  38 F= -.18272455E+03 E0= -.18272455E+03  d E =-.614514E-04
 curvature:  -1.82 expect dE=-0.180E-03 dE for cont linesearch -0.324E-05
 ZBRENT: interpolating
 opt :   1.6556  next Energy=  -182.724551 (dE=-0.655E-04)
 bond charge predicted
       N       E                     dE             d eps       ncg     rms          rms(c)
DAV:   1    -0.182724510625E+03    0.36357E-04   -0.13026E-02  6352   0.633E-01    0.210E-02
DAV:   2    -0.182724552284E+03   -0.41659E-04   -0.44324E-04  8072   0.111E-01    0.983E-03
DAV:   3    -0.182724552504E+03   -0.22045E-06   -0.10009E-05  9120   0.195E-02    0.745E-03
DAV:   4    -0.182724551981E+03    0.52317E-06   -0.18866E-06  8408   0.848E-03    0.297E-03
DAV:   5    -0.182724552003E+03   -0.22104E-07   -0.62716E-07  9056   0.445E-03    0.217E-03
DAV:   6    -0.182724551955E+03    0.48167E-07   -0.24069E-07  7568   0.280E-03    0.118E-03
DAV:   7    -0.182724551957E+03   -0.21355E-08   -0.26638E-08  4624   0.967E-04
  39 F= -.18272455E+03 E0= -.18272455E+03  d E =-.664305E-04
 curvature:  -2.28 expect dE=-0.150E-03 dE for cont linesearch -0.327E-07
 trial: gam= 0.72383 g(F)=  0.657E-04 g(S)=  0.000E+00 ort =-0.175E-05 (trialstep = 0.903E+00)
 search vector abs. value=  0.175E-03
 bond charge predicted
       N       E                     dE             d eps       ncg     rms          rms(c)
DAV:   1    -0.182724399647E+03    0.15231E-03   -0.54677E-02  6408   0.138E+00    0.527E-02
DAV:   2    -0.182724595539E+03   -0.19589E-03   -0.20853E-03  8072   0.233E-01    0.228E-02
DAV:   3    -0.182724597531E+03   -0.19919E-05   -0.49969E-05  9184   0.461E-02    0.146E-02
DAV:   4    -0.182724596274E+03    0.12573E-05   -0.53971E-06  9128   0.153E-02    0.722E-03
DAV:   5    -0.182724596046E+03    0.22783E-06   -0.20158E-06  9040   0.993E-03    0.352E-03
DAV:   6    -0.182724596060E+03   -0.14134E-07   -0.48089E-07  8480   0.386E-03    0.281E-03
DAV:   7    -0.182724596059E+03    0.85493E-09   -0.35970E-08  5480   0.129E-03
  40 F= -.18272460E+03 E0= -.18272460E+03  d E =-.441018E-04
 trial-energy change:   -0.000044  1 .order   -0.000045   -0.000058   -0.000031
 step:   1.9650(harm=  1.9650)  dis= 0.00120  next Energy=  -182.724615 (dE=-0.633E-04)
 bond charge predicted
       N       E                     dE             d eps       ncg     rms          rms(c)
DAV:   1    -0.182724337767E+03    0.25829E-03   -0.75747E-02  6408   0.163E+00    0.618E-02
DAV:   2    -0.182724609874E+03   -0.27211E-03   -0.28958E-03  8064   0.274E-01    0.269E-02
DAV:   3    -0.182724612628E+03   -0.27539E-05   -0.69403E-05  9104   0.545E-02    0.172E-02
DAV:   4    -0.182724610846E+03    0.17817E-05   -0.75390E-06  9136   0.182E-02    0.853E-03
DAV:   5    -0.182724610523E+03    0.32317E-06   -0.28442E-06  9184   0.118E-02    0.412E-03
DAV:   6    -0.182724610543E+03   -0.20569E-07   -0.67026E-07  8648   0.460E-03    0.333E-03
DAV:   7    -0.182724610543E+03    0.78580E-09   -0.59854E-08  7384   0.153E-03
  41 F= -.18272461E+03 E0= -.18272461E+03  d E =-.585854E-04
 curvature:  -2.67 expect dE=-0.358E-03 dE for cont linesearch -0.385E-07
 trial: gam= 2.03257 g(F)=  0.134E-03 g(S)=  0.000E+00 ort = 0.159E-05 (trialstep = 0.226E+00)
 search vector abs. value=  0.863E-03
 bond charge predicted
       N       E                     dE             d eps       ncg     rms          rms(c)
DAV:   1    -0.182724580108E+03    0.30436E-04   -0.17383E-02  6432   0.762E-01    0.274E-02
DAV:   2    -0.182724637364E+03   -0.57257E-04   -0.61016E-04  7960   0.128E-01    0.105E-02
DAV:   3    -0.182724637843E+03   -0.47832E-06   -0.14574E-05  9008   0.259E-02    0.741E-03
DAV:   4    -0.182724637294E+03    0.54864E-06   -0.14462E-06  9072   0.824E-03    0.395E-03
DAV:   5    -0.182724637190E+03    0.10373E-06   -0.67032E-07  8720   0.550E-03    0.121E-03
DAV:   6    -0.182724637173E+03    0.17037E-07   -0.20943E-07  8224   0.272E-03    0.136E-03
DAV:   7    -0.182724637170E+03    0.36162E-08   -0.46156E-08  6152   0.112E-03
  42 F= -.18272464E+03 E0= -.18272464E+03  d E =-.266270E-04
 ZBRENT: can't locate minimum, use default step
 trial-energy change:   -0.000027  1 .order   -0.000027   -0.000031   -0.000024
 step:   0.9035(harm=  0.9379)  dis= 0.00120  next Energy=  -182.724675 (dE=-0.646E-04)
 bond charge predicted
       N       E                     dE             d eps       ncg     rms          rms(c)
DAV:   1    -0.182724161224E+03    0.47595E-03   -0.15634E-01  6448   0.229E+00    0.812E-02
DAV:   2    -0.182724675351E+03   -0.51413E-03   -0.54712E-03  7944   0.381E-01    0.312E-02
DAV:   3    -0.182724679233E+03   -0.38816E-05   -0.12982E-04  8832   0.763E-02    0.222E-02
DAV:   4    -0.182724674473E+03    0.47596E-05   -0.13579E-05  8840   0.253E-02    0.112E-02
DAV:   5    -0.182724673658E+03    0.81488E-06   -0.60239E-06  9336   0.165E-02    0.359E-03
DAV:   6    -0.182724673570E+03    0.88148E-07   -0.18944E-06  8640   0.815E-03    0.425E-03
DAV:   7    -0.182724673576E+03   -0.61809E-08   -0.37405E-07  8128   0.302E-03    0.365E-03
DAV:   8    -0.182724673537E+03    0.39054E-07   -0.13482E-07  7504   0.224E-03    0.162E-03
DAV:   9    -0.182724673530E+03    0.73924E-08   -0.45405E-08  5832   0.106E-03
  43 F= -.18272467E+03 E0= -.18272467E+03  d E =-.629871E-04
 curvature:  -2.93 expect dE=-0.135E-03 dE for cont linesearch -0.162E-07
 trial: gam= 0.35288 g(F)=  0.460E-04 g(S)=  0.000E+00 ort = 0.218E-05 (trialstep = 0.361E+00)
 search vector abs. value=  0.155E-03
 bond charge predicted
       N       E                     dE             d eps       ncg     rms          rms(c)
DAV:   1    -0.182724666253E+03    0.72845E-05   -0.78299E-03  6408   0.490E-01    0.131E-02
DAV:   2    -0.182724688384E+03   -0.22131E-04   -0.23914E-04  8216   0.782E-02    0.943E-03
DAV:   3    -0.182724688349E+03    0.35623E-07   -0.43953E-06  9104   0.147E-02    0.700E-03
DAV:   4    -0.182724688060E+03    0.28877E-06   -0.44768E-07  8736   0.457E-03    0.376E-03
DAV:   5    -0.182724688025E+03    0.34866E-07   -0.38131E-07  8024   0.444E-03    0.629E-04
DAV:   6    -0.182724688020E+03    0.52714E-08   -0.76174E-08  6992   0.174E-03
  44 F= -.18272469E+03 E0= -.18272469E+03  d E =-.144899E-04
 ZBRENT: can't locate minimum, use default step
 trial-energy change:   -0.000014  1 .order   -0.000015   -0.000017   -0.000013
 step:   1.4455(harm=  1.4693)  dis= 0.00093  next Energy=  -182.724708 (dE=-0.344E-04)
 bond charge predicted
       N       E                     dE             d eps       ncg     rms          rms(c)
DAV:   1    -0.182724511452E+03    0.17657E-03   -0.70459E-02  6408   0.147E+00    0.392E-02
DAV:   2    -0.182724711811E+03   -0.20036E-03   -0.21541E-03  8152   0.235E-01    0.280E-02
DAV:   3    -0.182724711471E+03    0.34026E-06   -0.39879E-05  9040   0.438E-02    0.209E-02
DAV:   4    -0.182724709100E+03    0.23717E-05   -0.41635E-06  8776   0.141E-02    0.111E-02
DAV:   5    -0.182724708691E+03    0.40879E-06   -0.33134E-06  8320   0.132E-02    0.199E-03
DAV:   6    -0.182724708670E+03    0.21188E-07   -0.67803E-07  8976   0.526E-03    0.249E-03
DAV:   7    -0.182724708682E+03   -0.11947E-07   -0.32878E-08  5544   0.103E-03    0.198E-03
DAV:   8    -0.182724708677E+03    0.40673E-08   -0.30016E-08  4928   0.149E-03
  45 F= -.18272471E+03 E0= -.18272471E+03  d E =-.351476E-04
 curvature:  -2.43 expect dE=-0.839E-04 dE for cont linesearch -0.223E-07
 trial: gam= 0.77483 g(F)=  0.345E-04 g(S)=  0.000E+00 ort = 0.119E-05 (trialstep = 0.578E+00)
 search vector abs. value=  0.129E-03
 bond charge predicted
       N       E                     dE             d eps       ncg     rms          rms(c)
DAV:   1    -0.182724655937E+03    0.52745E-04   -0.17617E-02  6360   0.805E-01    0.454E-02
DAV:   2    -0.182724723483E+03   -0.67546E-04   -0.72300E-04  7960   0.132E-01    0.155E-02
DAV:   3    -0.182724724555E+03   -0.10721E-05   -0.20068E-05  9448   0.282E-02    0.116E-02
DAV:   4    -0.182724724321E+03    0.23414E-06   -0.14114E-06  8968   0.802E-03    0.610E-03
DAV:   5    -0.182724724227E+03    0.93823E-07   -0.61572E-07  8832   0.605E-03    0.161E-03
DAV:   6    -0.182724724232E+03   -0.46748E-08   -0.18612E-07  8720   0.279E-03    0.168E-03
DAV:   7    -0.182724724239E+03   -0.68867E-08   -0.99676E-09  4008   0.876E-04
  46 F= -.18272472E+03 E0= -.18272472E+03  d E =-.155612E-04
 trial-energy change:   -0.000016  1 .order   -0.000015   -0.000020   -0.000010
 step:   1.1139(harm=  1.1803)  dis= 0.00068  next Energy=  -182.724729 (dE=-0.205E-04)
 bond charge predicted
       N       E                     dE             d eps       ncg     rms          rms(c)
DAV:   1    -0.182724668448E+03    0.55784E-04   -0.15120E-02  6360   0.746E-01    0.419E-02
DAV:   2    -0.182724726447E+03   -0.57999E-04   -0.62081E-04  7960   0.123E-01    0.144E-02
DAV:   3    -0.182724727374E+03   -0.92754E-06   -0.17257E-05  9448   0.262E-02    0.107E-02
DAV:   4    -0.182724727182E+03    0.19223E-06   -0.12222E-06  8984   0.749E-03    0.559E-03
DAV:   5    -0.182724727103E+03    0.79181E-07   -0.53169E-07  8864   0.560E-03    0.154E-03
DAV:   6    -0.182724727105E+03   -0.20154E-08   -0.15689E-07  8672   0.256E-03    0.159E-03
DAV:   7    -0.182724727112E+03   -0.69413E-08   -0.80586E-09  4000   0.802E-04
  47 F= -.18272473E+03 E0= -.18272473E+03  d E =-.184344E-04
 curvature:  -2.13 expect dE=-0.468E-04 dE for cont linesearch -0.451E-07
 trial: gam= 0.51274 g(F)=  0.219E-04 g(S)=  0.000E+00 ort = 0.165E-05 (trialstep = 0.685E+00)
 search vector abs. value=  0.577E-04
 bond charge predicted
       N       E                     dE             d eps       ncg     rms          rms(c)
DAV:   1    -0.182724684478E+03    0.42627E-04   -0.10332E-02  6336   0.635E-01    0.558E-02
DAV:   2    -0.182724735472E+03   -0.50994E-04   -0.55827E-04  7968   0.118E-01    0.155E-02
DAV:   3    -0.182724736489E+03   -0.10174E-05   -0.19116E-05  9480   0.311E-02    0.102E-02
DAV:   4    -0.182724736310E+03    0.17969E-06   -0.92851E-07  9272   0.686E-03    0.771E-03
DAV:   5    -0.182724736127E+03    0.18263E-06   -0.49956E-07  8656   0.635E-03    0.157E-03
DAV:   6    -0.182724736126E+03    0.98589E-09   -0.14037E-07  8472   0.247E-03    0.969E-04
DAV:   7    -0.182724736119E+03    0.68394E-08   -0.13641E-08  4080   0.112E-03
  48 F= -.18272474E+03 E0= -.18272474E+03  d E =-.900749E-05
 trial-energy change:   -0.000009  1 .order   -0.000009   -0.000016   -0.000002
 step:   0.7504(harm=  0.7628)  dis= 0.00038  next Energy=  -182.724736 (dE=-0.908E-05)
 reached required accuracy - stopping structural energy minimisation
 writing wavefunctions
Note: The following floating-point exceptions are signalling: IEEE_UNDERFLOW_FLAG IEEE_DENORMAL
Note: The following floating-point exceptions are signalling: IEEE_UNDERFLOW_FLAG IEEE_DENORMAL
Note: The following floating-point exceptions are signalling: IEEE_UNDERFLOW_FLAG IEEE_DENORMAL
Note: The following floating-point exceptions are signalling: IEEE_UNDERFLOW_FLAG IEEE_DENORMAL
Note: The following floating-point exceptions are signalling: IEEE_UNDERFLOW_FLAG IEEE_DENORMAL
Note: The following floating-point exceptions are signalling: IEEE_UNDERFLOW_FLAG IEEE_DENORMAL
Note: The following floating-point exceptions are signalling: IEEE_UNDERFLOW_FLAG IEEE_DENORMAL
Note: The following floating-point exceptions are signalling: IEEE_UNDERFLOW_FLAG IEEE_DENORMAL

real	212m13,873s
user	1670m24,010s
sys	26m18,243s
/data/ozakary/4986.OUT
total 0
rm: impossible de supprimer '/data/ozakary/4986.OUT/*': Aucun fichier ou dossier de ce type
Job finished at
jeu. 26 janv. 2023 23:03:55 CET
