Loading vasp/6.2.1-gcc-10.2
  Loading requirement: hdf5/1.12.1-gcc-10.2 wannier90/3.1.0-gcc-10.2
 ----------------------------------------------------
    OOO  PPPP  EEEEE N   N M   M PPPP
   O   O P   P E     NN  N MM MM P   P
   O   O PPPP  EEEEE N N N M M M PPPP   -- VERSION
   O   O P     E     N  NN M   M P
    OOO  P     EEEEE N   N M   M P
 ----------------------------------------------------
 running    1 mpi-ranks, with    1 threads/rank
 distrk:  each k-point on    1 cores,    1 groups
 distr:  one band on    1 cores,    1 groups
 vasp.6.2.1 16May21 (build Jan  3 2022 11:18:50) complex                         
 POSCAR found type information on POSCAR NaTaO F 
 POSCAR found :  4 types and      24 ions
 Reading from existing POTCAR
 scaLAPACK will be used
 Reading from existing POTCAR
 LDA part: xc-table for Pade appr. of Perdew
 POSCAR, INCAR and KPOINTS ok, starting setup
 FFT: planning ...
 WAVECAR not read
 entering main loop
       N       E                     dE             d eps       ncg     rms          rms(c)
DAV:   1     0.354722532139E+04    0.35472E+04   -0.10419E+05  5544   0.190E+03
DAV:   2     0.416858648247E+03   -0.31304E+04   -0.29327E+04  5564   0.721E+02
DAV:   3    -0.204601615415E+03   -0.62146E+03   -0.60820E+03  8813   0.343E+02
DAV:   4    -0.239326562606E+03   -0.34725E+02   -0.34608E+02  8752   0.981E+01
DAV:   5    -0.239880751778E+03   -0.55419E+00   -0.55335E+00  8600   0.142E+01    0.118E+02
DAV:   6    -0.198541317544E+03    0.41339E+02   -0.17664E+02  8712   0.624E+01    0.195E+02
DAV:   7    -0.201967727517E+03   -0.34264E+01   -0.12316E+01  8424   0.170E+01    0.177E+02
DAV:   8    -0.206540580200E+03   -0.45729E+01   -0.28654E+01  8064   0.262E+01    0.392E+02
DAV:   9    -0.196753515260E+03    0.97871E+01   -0.32185E+01  7720   0.239E+01    0.225E+02
DAV:  10    -0.197115782790E+03   -0.36227E+00   -0.46310E+00  8544   0.998E+00    0.176E+02
DAV:  11    -0.196939084942E+03    0.17670E+00   -0.39732E-01  8712   0.345E+00    0.125E+02
DAV:  12    -0.196843945650E+03    0.95139E-01   -0.24030E-01  8192   0.307E+00    0.122E+01
DAV:  13    -0.196833952720E+03    0.99929E-02   -0.63563E-02  8784   0.124E+00    0.142E+00
DAV:  14    -0.196835127633E+03   -0.11749E-02   -0.13805E-02  8504   0.627E-01    0.142E+00
DAV:  15    -0.196835050383E+03    0.77250E-04   -0.25040E-03  8704   0.307E-01    0.830E-01
DAV:  16    -0.196835082051E+03   -0.31668E-04   -0.70997E-04  8472   0.137E-01    0.415E-02
DAV:  17    -0.196835116448E+03   -0.34397E-04   -0.16266E-04  9344   0.798E-02    0.326E-01
DAV:  18    -0.196835120242E+03   -0.37935E-05   -0.96847E-05  7680   0.427E-02    0.277E-02
DAV:  19    -0.196835117102E+03    0.31394E-05   -0.34021E-05  8904   0.313E-02    0.896E-02
DAV:  20    -0.196835117466E+03   -0.36331E-06   -0.16567E-05  8128   0.164E-02    0.108E-01
DAV:  21    -0.196835117404E+03    0.61493E-07   -0.20397E-06  8472   0.832E-03    0.157E-03
DAV:  22    -0.196835117504E+03   -0.99782E-07   -0.51092E-07  7408   0.289E-03    0.512E-03
DAV:  23    -0.196835117507E+03   -0.32451E-08   -0.29540E-08  4984   0.959E-04
ion   1
     0.0000000     0.0296553     0.0638464     0.0286512     0.0122846    -0.0699612
     0.0000330     0.0296553     0.0638464     0.0286512     0.0122846    -0.0699612
     0.0000455     0.0296553     0.0638465     0.0286512     0.0122846    -0.0699612
     0.0000627     0.0296553     0.0638465     0.0286512     0.0122846    -0.0699612
     0.0000863     0.0296553     0.0638465     0.0286512     0.0122846    -0.0699612

     0.0000000     0.4913595     3.2408856     1.9872949    -0.4527716    -4.8575311
     0.0000330     0.4913591     3.2408830     1.9872934    -0.4527712    -4.8575272
     0.0000455     0.4913589     3.2408814     1.9872923    -0.4527709    -4.8575247
     0.0000627     0.4913585     3.2408786     1.9872906    -0.4527705    -4.8575205
     0.0000863     0.4913578     3.2408740     1.9872878    -0.4527698    -4.8575135

ion   2
     0.0000000     0.0296553     0.0638464     0.0286512     0.0122846    -0.0699612
     0.0000330     0.0296553     0.0638464     0.0286512     0.0122846    -0.0699612
     0.0000455     0.0296553     0.0638465     0.0286512     0.0122846    -0.0699612
     0.0000627     0.0296553     0.0638465     0.0286512     0.0122846    -0.0699612
     0.0000863     0.0296553     0.0638465     0.0286512     0.0122846    -0.0699612

     0.0000000     0.4913595     3.2408856     1.9872949    -0.4527716    -4.8575311
     0.0000330     0.4913591     3.2408830     1.9872934    -0.4527712    -4.8575272
     0.0000455     0.4913589     3.2408814     1.9872923    -0.4527709    -4.8575247
     0.0000627     0.4913585     3.2408786     1.9872906    -0.4527705    -4.8575205
     0.0000863     0.4913578     3.2408740     1.9872878    -0.4527698    -4.8575135

ion   3
     0.0000000    -0.0296553    -0.0638464     0.0286512     0.0122846    -0.0699612
     0.0000330    -0.0296553    -0.0638464     0.0286512     0.0122846    -0.0699612
     0.0000455    -0.0296553    -0.0638465     0.0286512     0.0122846    -0.0699612
     0.0000627    -0.0296553    -0.0638465     0.0286512     0.0122846    -0.0699612
     0.0000863    -0.0296553    -0.0638465     0.0286512     0.0122846    -0.0699612

     0.0000000    -0.4913595    -3.2408856     1.9872949    -0.4527716    -4.8575311
     0.0000330    -0.4913591    -3.2408830     1.9872934    -0.4527712    -4.8575272
     0.0000455    -0.4913589    -3.2408814     1.9872923    -0.4527709    -4.8575247
     0.0000627    -0.4913585    -3.2408786     1.9872906    -0.4527705    -4.8575205
     0.0000863    -0.4913578    -3.2408740     1.9872878    -0.4527698    -4.8575135

ion   4
     0.0000000    -0.0296553    -0.0638464     0.0286512     0.0122846    -0.0699612
     0.0000330    -0.0296553    -0.0638464     0.0286512     0.0122846    -0.0699612
     0.0000455    -0.0296553    -0.0638465     0.0286512     0.0122846    -0.0699612
     0.0000627    -0.0296553    -0.0638465     0.0286512     0.0122846    -0.0699612
     0.0000863    -0.0296553    -0.0638465     0.0286512     0.0122846    -0.0699612

     0.0000000    -0.4913595    -3.2408856     1.9872949    -0.4527716    -4.8575311
     0.0000330    -0.4913591    -3.2408830     1.9872934    -0.4527712    -4.8575272
     0.0000455    -0.4913589    -3.2408814     1.9872923    -0.4527709    -4.8575247
     0.0000627    -0.4913585    -3.2408786     1.9872906    -0.4527705    -4.8575205
     0.0000863    -0.4913578    -3.2408740     1.9872878    -0.4527698    -4.8575135

ion   5
     0.0000000    -0.1544258     0.6764229     1.3233692    -0.2396064    -0.2055037
     0.0000657    -0.1544258     0.6764229     1.3233692    -0.2396064    -0.2055037
     0.0000905    -0.1544258     0.6764229     1.3233693    -0.2396064    -0.2055037
     0.0001247    -0.1544258     0.6764229     1.3233693    -0.2396064    -0.2055038
     0.0001717    -0.1544258     0.6764229     1.3233693    -0.2396064    -0.2055038

     0.0000000   -18.3459324    66.2870490   139.0310459   -35.4783227   -26.5163211
     0.0000657   -18.3273807    66.2358441   138.9309907   -35.4509641   -26.4980880
     0.0000905   -18.3183495    66.2114309   138.8835740   -35.4379708   -26.4895860
     0.0001247   -18.3044657    66.1742196   138.8114818   -35.4181982   -26.4767480
     0.0001717   -18.2832117    66.1177484   138.7023606   -35.3882417   -26.4574547

ion   6
     0.0000000    -0.1544258     0.6764229     1.3233692    -0.2396064    -0.2055037
     0.0000657    -0.1544258     0.6764229     1.3233692    -0.2396064    -0.2055037
     0.0000905    -0.1544258     0.6764229     1.3233693    -0.2396064    -0.2055037
     0.0001247    -0.1544258     0.6764229     1.3233693    -0.2396064    -0.2055038
     0.0001717    -0.1544258     0.6764229     1.3233693    -0.2396064    -0.2055038

     0.0000000   -18.3459324    66.2870490   139.0310459   -35.4783227   -26.5163211
     0.0000657   -18.3273807    66.2358441   138.9309907   -35.4509641   -26.4980880
     0.0000905   -18.3183495    66.2114309   138.8835740   -35.4379708   -26.4895860
     0.0001247   -18.3044657    66.1742196   138.8114818   -35.4181982   -26.4767480
     0.0001717   -18.2832117    66.1177484   138.7023606   -35.3882417   -26.4574547

ion   7
     0.0000000     0.1544258    -0.6764229     1.3233692    -0.2396064    -0.2055037
     0.0000657     0.1544258    -0.6764229     1.3233692    -0.2396064    -0.2055037
     0.0000905     0.1544258    -0.6764229     1.3233693    -0.2396064    -0.2055037
     0.0001247     0.1544258    -0.6764229     1.3233693    -0.2396064    -0.2055038
     0.0001717     0.1544258    -0.6764229     1.3233693    -0.2396064    -0.2055038

     0.0000000    18.3459324   -66.2870490   139.0310459   -35.4783227   -26.5163211
     0.0000657    18.3273807   -66.2358441   138.9309907   -35.4509641   -26.4980880
     0.0000905    18.3183495   -66.2114309   138.8835740   -35.4379708   -26.4895860
     0.0001247    18.3044657   -66.1742196   138.8114818   -35.4181982   -26.4767480
     0.0001717    18.2832117   -66.1177484   138.7023606   -35.3882417   -26.4574547

ion   8
     0.0000000     0.1544258    -0.6764229     1.3233692    -0.2396064    -0.2055037
     0.0000657     0.1544258    -0.6764229     1.3233692    -0.2396064    -0.2055037
     0.0000905     0.1544258    -0.6764229     1.3233693    -0.2396064    -0.2055037
     0.0001247     0.1544258    -0.6764229     1.3233693    -0.2396064    -0.2055038
     0.0001717     0.1544258    -0.6764229     1.3233693    -0.2396064    -0.2055038

     0.0000000    18.3459324   -66.2870490   139.0310459   -35.4783227   -26.5163211
     0.0000657    18.3273807   -66.2358441   138.9309907   -35.4509641   -26.4980880
     0.0000905    18.3183495   -66.2114309   138.8835740   -35.4379708   -26.4895860
     0.0001247    18.3044657   -66.1742196   138.8114818   -35.4181982   -26.4767480
     0.0001717    18.2832117   -66.1177484   138.7023606   -35.3882417   -26.4574547

ion   9
     0.0000000    -1.2613659    -0.1024007     1.7790476    -0.0398710     0.9648466
     0.0000293    -1.2613659    -0.1024007     1.7790476    -0.0398710     0.9648466
     0.0000403    -1.2613659    -0.1024007     1.7790476    -0.0398710     0.9648466
     0.0000555    -1.2613659    -0.1024007     1.7790476    -0.0398710     0.9648466
     0.0000765    -1.2613659    -0.1024007     1.7790476    -0.0398711     0.9648465

     0.0000000    -3.0997494    -0.7141466    -4.7633565     4.1716641     4.0220731
     0.0000293    -3.0997488    -0.7141464    -4.7633542     4.1716626     4.0220721
     0.0000403    -3.0997484    -0.7141463    -4.7633527     4.1716617     4.0220714
     0.0000555    -3.0997477    -0.7141460    -4.7633502     4.1716600     4.0220702
     0.0000765    -3.0997465    -0.7141456    -4.7633459     4.1716573     4.0220682

ion  10
     0.0000000    -1.2613659    -0.1024007     1.7790476    -0.0398710     0.9648466
     0.0000293    -1.2613659    -0.1024007     1.7790476    -0.0398710     0.9648466
     0.0000403    -1.2613659    -0.1024007     1.7790476    -0.0398710     0.9648466
     0.0000555    -1.2613659    -0.1024007     1.7790476    -0.0398710     0.9648466
     0.0000765    -1.2613659    -0.1024007     1.7790476    -0.0398711     0.9648465

     0.0000000    -3.0997494    -0.7141466    -4.7633565     4.1716641     4.0220731
     0.0000293    -3.0997488    -0.7141464    -4.7633542     4.1716626     4.0220721
     0.0000403    -3.0997484    -0.7141463    -4.7633527     4.1716617     4.0220714
     0.0000555    -3.0997477    -0.7141460    -4.7633502     4.1716600     4.0220702
     0.0000765    -3.0997465    -0.7141456    -4.7633459     4.1716573     4.0220682

ion  11
     0.0000000     1.2613659     0.1024007     1.7790476    -0.0398710     0.9648466
     0.0000293     1.2613659     0.1024007     1.7790476    -0.0398710     0.9648466
     0.0000403     1.2613659     0.1024007     1.7790476    -0.0398710     0.9648466
     0.0000555     1.2613659     0.1024007     1.7790476    -0.0398710     0.9648466
     0.0000765     1.2613659     0.1024007     1.7790476    -0.0398711     0.9648465

     0.0000000     3.0997494     0.7141466    -4.7633565     4.1716641     4.0220731
     0.0000293     3.0997488     0.7141464    -4.7633542     4.1716626     4.0220721
     0.0000403     3.0997484     0.7141463    -4.7633527     4.1716617     4.0220714
     0.0000555     3.0997477     0.7141460    -4.7633502     4.1716600     4.0220702
     0.0000765     3.0997465     0.7141456    -4.7633459     4.1716573     4.0220682

ion  12
     0.0000000     1.2613659     0.1024007     1.7790476    -0.0398710     0.9648466
     0.0000293     1.2613659     0.1024007     1.7790476    -0.0398710     0.9648466
     0.0000403     1.2613659     0.1024007     1.7790476    -0.0398710     0.9648466
     0.0000555     1.2613659     0.1024007     1.7790476    -0.0398710     0.9648466
     0.0000765     1.2613659     0.1024007     1.7790476    -0.0398711     0.9648465

     0.0000000     3.0997494     0.7141466    -4.7633565     4.1716641     4.0220731
     0.0000293     3.0997488     0.7141464    -4.7633542     4.1716626     4.0220721
     0.0000403     3.0997484     0.7141463    -4.7633527     4.1716617     4.0220714
     0.0000555     3.0997477     0.7141460    -4.7633502     4.1716600     4.0220702
     0.0000765     3.0997465     0.7141456    -4.7633459     4.1716573     4.0220682

ion  13
     0.0000000    -2.3832577    -1.1905189     0.1700270    -0.4365751    -0.9429774
     0.0000293    -2.3832577    -1.1905189     0.1700270    -0.4365751    -0.9429774
     0.0000403    -2.3832577    -1.1905189     0.1700269    -0.4365751    -0.9429774
     0.0000555    -2.3832577    -1.1905189     0.1700269    -0.4365751    -0.9429773
     0.0000765    -2.3832577    -1.1905189     0.1700269    -0.4365750    -0.9429773

     0.0000000     2.3385220    -0.4558048     7.2151010    -3.9958618    -2.3671578
     0.0000293     2.3385204    -0.4558051     7.2150986    -3.9958605    -2.3671573
     0.0000403     2.3385193    -0.4558052     7.2150970    -3.9958597    -2.3671570
     0.0000555     2.3385175    -0.4558055     7.2150943    -3.9958584    -2.3671564
     0.0000765     2.3385144    -0.4558060     7.2150897    -3.9958560    -2.3671555

ion  14
     0.0000000    -2.3832577    -1.1905189     0.1700270    -0.4365751    -0.9429774
     0.0000293    -2.3832577    -1.1905189     0.1700270    -0.4365751    -0.9429774
     0.0000403    -2.3832577    -1.1905189     0.1700269    -0.4365751    -0.9429774
     0.0000555    -2.3832577    -1.1905189     0.1700269    -0.4365751    -0.9429773
     0.0000765    -2.3832577    -1.1905189     0.1700269    -0.4365750    -0.9429773

     0.0000000     2.3385220    -0.4558048     7.2151010    -3.9958618    -2.3671578
     0.0000293     2.3385204    -0.4558051     7.2150986    -3.9958605    -2.3671573
     0.0000403     2.3385193    -0.4558052     7.2150970    -3.9958597    -2.3671570
     0.0000555     2.3385175    -0.4558055     7.2150943    -3.9958584    -2.3671564
     0.0000765     2.3385144    -0.4558060     7.2150897    -3.9958560    -2.3671555

ion  15
     0.0000000     2.3832577     1.1905189     0.1700270    -0.4365751    -0.9429774
     0.0000293     2.3832577     1.1905189     0.1700270    -0.4365751    -0.9429774
     0.0000403     2.3832577     1.1905189     0.1700269    -0.4365751    -0.9429774
     0.0000555     2.3832577     1.1905189     0.1700269    -0.4365751    -0.9429773
     0.0000765     2.3832577     1.1905189     0.1700269    -0.4365750    -0.9429773

     0.0000000    -2.3385220     0.4558048     7.2151010    -3.9958618    -2.3671578
     0.0000293    -2.3385204     0.4558051     7.2150986    -3.9958605    -2.3671573
     0.0000403    -2.3385193     0.4558052     7.2150970    -3.9958597    -2.3671570
     0.0000555    -2.3385175     0.4558055     7.2150943    -3.9958584    -2.3671564
     0.0000765    -2.3385144     0.4558060     7.2150897    -3.9958560    -2.3671555

ion  16
     0.0000000     2.3832577     1.1905189     0.1700270    -0.4365751    -0.9429774
     0.0000293     2.3832577     1.1905189     0.1700270    -0.4365751    -0.9429774
     0.0000403     2.3832577     1.1905189     0.1700269    -0.4365751    -0.9429774
     0.0000555     2.3832577     1.1905189     0.1700269    -0.4365751    -0.9429773
     0.0000765     2.3832577     1.1905189     0.1700269    -0.4365750    -0.9429773

     0.0000000    -2.3385220     0.4558048     7.2151010    -3.9958618    -2.3671578
     0.0000293    -2.3385204     0.4558051     7.2150986    -3.9958605    -2.3671573
     0.0000403    -2.3385193     0.4558052     7.2150970    -3.9958597    -2.3671570
     0.0000555    -2.3385175     0.4558055     7.2150943    -3.9958584    -2.3671564
     0.0000765    -2.3385144     0.4558060     7.2150897    -3.9958560    -2.3671555

ion  17
     0.0000000    -7.6075290     0.3219406     5.9658921    -1.9162148    -3.1092897
     0.0000310    -7.6075289     0.3219406     5.9658920    -1.9162148    -3.1092897
     0.0000427    -7.6075289     0.3219406     5.9658920    -1.9162148    -3.1092896
     0.0000588    -7.6075287     0.3219406     5.9658919    -1.9162148    -3.1092896
     0.0000810    -7.6075284     0.3219406     5.9658917    -1.9162147    -3.1092895

     0.0000000   -28.6179577     1.4853758    22.4111845    -7.0305004   -12.0321137
     0.0000310   -28.6179462     1.4853752    22.4111756    -7.0304976   -12.0321089
     0.0000427   -28.6179387     1.4853748    22.4111697    -7.0304958   -12.0321057
     0.0000588   -28.6179259     1.4853741    22.4111597    -7.0304927   -12.0321002
     0.0000810   -28.6179045     1.4853729    22.4111429    -7.0304875   -12.0320911

ion  18
     0.0000000    -7.6075290     0.3219406     5.9658921    -1.9162148    -3.1092897
     0.0000310    -7.6075289     0.3219406     5.9658920    -1.9162148    -3.1092897
     0.0000427    -7.6075289     0.3219406     5.9658920    -1.9162148    -3.1092896
     0.0000588    -7.6075287     0.3219406     5.9658919    -1.9162148    -3.1092896
     0.0000810    -7.6075284     0.3219406     5.9658917    -1.9162147    -3.1092895

     0.0000000   -28.6179577     1.4853758    22.4111845    -7.0305004   -12.0321137
     0.0000310   -28.6179462     1.4853752    22.4111756    -7.0304976   -12.0321089
     0.0000427   -28.6179387     1.4853748    22.4111697    -7.0304958   -12.0321057
     0.0000588   -28.6179259     1.4853741    22.4111597    -7.0304927   -12.0321002
     0.0000810   -28.6179045     1.4853729    22.4111429    -7.0304875   -12.0320911

ion  19
     0.0000000     7.6075290    -0.3219406     5.9658921    -1.9162148    -3.1092897
     0.0000310     7.6075289    -0.3219406     5.9658920    -1.9162148    -3.1092897
     0.0000427     7.6075289    -0.3219406     5.9658920    -1.9162148    -3.1092896
     0.0000588     7.6075287    -0.3219406     5.9658919    -1.9162148    -3.1092896
     0.0000810     7.6075284    -0.3219406     5.9658917    -1.9162147    -3.1092895

     0.0000000    28.6179577    -1.4853758    22.4111845    -7.0305004   -12.0321137
     0.0000310    28.6179462    -1.4853752    22.4111756    -7.0304976   -12.0321089
     0.0000427    28.6179387    -1.4853748    22.4111697    -7.0304958   -12.0321057
     0.0000588    28.6179259    -1.4853741    22.4111597    -7.0304927   -12.0321002
     0.0000810    28.6179045    -1.4853729    22.4111429    -7.0304875   -12.0320911

ion  20
     0.0000000     7.6075290    -0.3219406     5.9658921    -1.9162148    -3.1092897
     0.0000310     7.6075289    -0.3219406     5.9658920    -1.9162148    -3.1092897
     0.0000427     7.6075289    -0.3219406     5.9658920    -1.9162148    -3.1092896
     0.0000588     7.6075287    -0.3219406     5.9658919    -1.9162148    -3.1092896
     0.0000810     7.6075284    -0.3219406     5.9658917    -1.9162147    -3.1092895

     0.0000000    28.6179577    -1.4853758    22.4111845    -7.0305004   -12.0321137
     0.0000310    28.6179462    -1.4853752    22.4111756    -7.0304976   -12.0321089
     0.0000427    28.6179387    -1.4853748    22.4111697    -7.0304958   -12.0321057
     0.0000588    28.6179259    -1.4853741    22.4111597    -7.0304927   -12.0321002
     0.0000810    28.6179045    -1.4853729    22.4111429    -7.0304875   -12.0320911

ion  21
     0.0000000     5.9129829     5.3436364     5.7194588    -2.5373988     2.6139340
     0.0000310     5.9129828     5.3436363     5.7194588    -2.5373988     2.6139340
     0.0000427     5.9129828     5.3436363     5.7194587    -2.5373988     2.6139340
     0.0000588     5.9129826     5.3436362     5.7194586    -2.5373987     2.6139339
     0.0000810     5.9129824     5.3436360     5.7194584    -2.5373986     2.6139338

     0.0000000    23.6729629    20.1432870    20.4449352    -9.5384819     9.9071965
     0.0000310    23.6729532    20.1432790    20.4449272    -9.5384781     9.9071925
     0.0000427    23.6729469    20.1432737    20.4449219    -9.5384756     9.9071899
     0.0000588    23.6729361    20.1432647    20.4449129    -9.5384713     9.9071855
     0.0000810    23.6729179    20.1432496    20.4448979    -9.5384642     9.9071780

ion  22
     0.0000000     5.9129829     5.3436364     5.7194588    -2.5373988     2.6139340
     0.0000310     5.9129828     5.3436363     5.7194588    -2.5373988     2.6139340
     0.0000427     5.9129828     5.3436363     5.7194587    -2.5373988     2.6139340
     0.0000588     5.9129826     5.3436362     5.7194586    -2.5373987     2.6139339
     0.0000810     5.9129824     5.3436360     5.7194584    -2.5373986     2.6139338

     0.0000000    23.6729629    20.1432870    20.4449352    -9.5384819     9.9071965
     0.0000310    23.6729532    20.1432790    20.4449272    -9.5384781     9.9071925
     0.0000427    23.6729469    20.1432737    20.4449219    -9.5384756     9.9071899
     0.0000588    23.6729361    20.1432647    20.4449129    -9.5384713     9.9071855
     0.0000810    23.6729179    20.1432496    20.4448979    -9.5384642     9.9071780

ion  23
     0.0000000    -5.9129829    -5.3436364     5.7194588    -2.5373988     2.6139340
     0.0000310    -5.9129828    -5.3436363     5.7194588    -2.5373988     2.6139340
     0.0000427    -5.9129828    -5.3436363     5.7194587    -2.5373988     2.6139340
     0.0000588    -5.9129826    -5.3436362     5.7194586    -2.5373987     2.6139339
     0.0000810    -5.9129824    -5.3436360     5.7194584    -2.5373986     2.6139338

     0.0000000   -23.6729629   -20.1432870    20.4449352    -9.5384819     9.9071965
     0.0000310   -23.6729532   -20.1432790    20.4449272    -9.5384781     9.9071925
     0.0000427   -23.6729469   -20.1432737    20.4449219    -9.5384756     9.9071899
     0.0000588   -23.6729361   -20.1432647    20.4449129    -9.5384713     9.9071855
     0.0000810   -23.6729179   -20.1432496    20.4448979    -9.5384642     9.9071780

ion  24
     0.0000000    -5.9129829    -5.3436364     5.7194588    -2.5373988     2.6139340
     0.0000310    -5.9129828    -5.3436363     5.7194588    -2.5373988     2.6139340
     0.0000427    -5.9129828    -5.3436363     5.7194587    -2.5373988     2.6139340
     0.0000588    -5.9129826    -5.3436362     5.7194586    -2.5373987     2.6139339
     0.0000810    -5.9129824    -5.3436360     5.7194584    -2.5373986     2.6139338

     0.0000000   -23.6729629   -20.1432870    20.4449352    -9.5384819     9.9071965
     0.0000310   -23.6729532   -20.1432790    20.4449272    -9.5384781     9.9071925
     0.0000427   -23.6729469   -20.1432737    20.4449219    -9.5384756     9.9071899
     0.0000588   -23.6729361   -20.1432647    20.4449129    -9.5384713     9.9071855
     0.0000810   -23.6729179   -20.1432496    20.4448979    -9.5384642     9.9071780

   1 F= -.19683512E+03 E0= -.19683512E+03  d E =-.158672E-11
BDIR= 1  IDIR= 2  IQ= -1
DAV:   1    -0.573831697167E+04   -0.57383E+04   -0.16848E+00  5680   0.554E+00
DAV:   2    -0.573833298964E+04   -0.16018E-01   -0.16018E-01  8088   0.180E+00
DAV:   3    -0.573833335485E+04   -0.36521E-03   -0.36521E-03  8920   0.291E-01
DAV:   4    -0.573833336504E+04   -0.10188E-04   -0.10188E-04  8960   0.457E-02
DAV:   5    -0.573833336541E+04   -0.37305E-06   -0.37304E-06  8944   0.870E-03
DAV:   6    -0.573833336543E+04   -0.16337E-07   -0.16405E-07  6512   0.173E-03
DAV:   7    -0.573833336543E+04   -0.71668E-09   -0.84233E-09  4504   0.493E-04
       N       E                     dE             d eps       ncg     rms
RMM:   1    -0.553071917054E+03   -0.55307E+03   -0.14112E+03  6160   0.355E+02
RMM:   2    -0.665196899581E+03   -0.11212E+03   -0.35891E+02 10052   0.455E+01
RMM:   3    -0.675680607166E+03   -0.10484E+02   -0.49650E+01 10812   0.124E+01
RMM:   4    -0.677065029020E+03   -0.13844E+01   -0.38530E+00 11050   0.356E+00
RMM:   5    -0.677212491901E+03   -0.14746E+00   -0.45626E-01 11234   0.112E+00
RMM:   6    -0.677231326032E+03   -0.18834E-01   -0.71408E-02 11229   0.386E-01
RMM:   7    -0.677234533676E+03   -0.32076E-02   -0.12858E-02 11499   0.139E-01
RMM:   8    -0.677235091931E+03   -0.55825E-03   -0.24326E-03 11233   0.494E-02
RMM:   9    -0.677235189775E+03   -0.97844E-04   -0.30439E-04 10937   0.180E-02
RMM:  10    -0.677235203436E+03   -0.13661E-04   -0.62399E-05  9843   0.707E-03
RMM:  11    -0.677235206227E+03   -0.27912E-05   -0.10028E-05  7965   0.274E-03
RMM:  12    -0.677235206675E+03   -0.44744E-06   -0.20737E-06  6230   0.118E-03
RMM:  13    -0.677235206769E+03   -0.94367E-07   -0.35058E-07  5093   0.543E-04
RMM:  14    -0.677235206783E+03   -0.14427E-07   -0.62840E-08  4070   0.319E-04
RMM:  15    -0.677235206786E+03   -0.30678E-08   -0.12119E-08  3221   0.241E-04
BDIR= 1  IDIR= 2  IQ=  0
DAV:   1    -0.573839868699E+04   -0.57384E+04   -0.76740E-09  3672   0.605E-04
DAV:   2    -0.573839868699E+04   -0.32833E-09   -0.24053E-09  3552   0.358E-04
       N       E                     dE             d eps       ncg     rms
RMM:   1    -0.553142120266E+03   -0.55314E+03   -0.14115E+03  6159   0.355E+02
RMM:   2    -0.665230253630E+03   -0.11209E+03   -0.35852E+02 10052   0.454E+01
RMM:   3    -0.675698085278E+03   -0.10468E+02   -0.49523E+01 10814   0.124E+01
RMM:   4    -0.677086382827E+03   -0.13883E+01   -0.38494E+00 11047   0.355E+00
RMM:   5    -0.677234875235E+03   -0.14849E+00   -0.45932E-01 11227   0.112E+00
RMM:   6    -0.677253855391E+03   -0.18980E-01   -0.72010E-02 11237   0.386E-01
RMM:   7    -0.677257066692E+03   -0.32113E-02   -0.12984E-02 11499   0.139E-01
RMM:   8    -0.677257627426E+03   -0.56073E-03   -0.24576E-03 11238   0.493E-02
RMM:   9    -0.677257725319E+03   -0.97893E-04   -0.29386E-04 10927   0.178E-02
RMM:  10    -0.677257738406E+03   -0.13087E-04   -0.59849E-05  9812   0.699E-03
RMM:  11    -0.677257741130E+03   -0.27243E-05   -0.97708E-06  7993   0.274E-03
RMM:  12    -0.677257741568E+03   -0.43851E-06   -0.20480E-06  6238   0.118E-03
RMM:  13    -0.677257741661E+03   -0.92613E-07   -0.33801E-07  5112   0.541E-04
RMM:  14    -0.677257741675E+03   -0.14118E-07   -0.61375E-08  4092   0.318E-04
RMM:  15    -0.677257741678E+03   -0.29071E-08   -0.10991E-08  3217   0.238E-04
BDIR= 1  IDIR= 2  IQ=  1
DAV:   1    -0.573844746747E+04   -0.57384E+04   -0.16845E+00  5680   0.554E+00
DAV:   2    -0.573846352339E+04   -0.16056E-01   -0.16056E-01  8104   0.180E+00
DAV:   3    -0.573846387196E+04   -0.34857E-03   -0.34857E-03  8968   0.288E-01
DAV:   4    -0.573846388149E+04   -0.95300E-05   -0.95295E-05  8944   0.449E-02
DAV:   5    -0.573846388185E+04   -0.35269E-06   -0.35296E-06  8920   0.860E-03
DAV:   6    -0.573846388186E+04   -0.15430E-07   -0.15470E-07  6624   0.172E-03
DAV:   7    -0.573846388186E+04   -0.10969E-08   -0.79264E-09  4480   0.490E-04
       N       E                     dE             d eps       ncg     rms
RMM:   1    -0.553027288620E+03   -0.55303E+03   -0.14102E+03  6163   0.355E+02
RMM:   2    -0.665162619532E+03   -0.11214E+03   -0.35891E+02 10053   0.454E+01
RMM:   3    -0.675691505185E+03   -0.10529E+02   -0.50078E+01 10822   0.124E+01
RMM:   4    -0.677090503125E+03   -0.13990E+01   -0.38500E+00 11043   0.355E+00
RMM:   5    -0.677239575485E+03   -0.14907E+00   -0.46216E-01 11228   0.112E+00
RMM:   6    -0.677258759960E+03   -0.19184E-01   -0.73203E-02 11235   0.386E-01
RMM:   7    -0.677261989257E+03   -0.32293E-02   -0.12934E-02 11489   0.139E-01
RMM:   8    -0.677262552029E+03   -0.56277E-03   -0.24848E-03 11237   0.494E-02
RMM:   9    -0.677262650503E+03   -0.98474E-04   -0.29049E-04 10940   0.178E-02
RMM:  10    -0.677262663337E+03   -0.12834E-04   -0.57837E-05  9776   0.697E-03
RMM:  11    -0.677262666021E+03   -0.26839E-05   -0.98758E-06  7971   0.275E-03
RMM:  12    -0.677262666468E+03   -0.44707E-06   -0.20790E-06  6244   0.119E-03
RMM:  13    -0.677262666562E+03   -0.94867E-07   -0.34813E-07  5122   0.545E-04
RMM:  14    -0.677262666577E+03   -0.14882E-07   -0.66557E-08  4093   0.321E-04
RMM:  15    -0.677262666580E+03   -0.30794E-08   -0.10918E-08  3235   0.239E-04
BDIR= 1  IDIR= 3  IQ= -1
DAV:   1    -0.573832824095E+04   -0.57383E+04   -0.17222E+00  5661   0.555E+00
DAV:   2    -0.573834524769E+04   -0.17007E-01   -0.17006E-01  8088   0.180E+00
DAV:   3    -0.573834592499E+04   -0.67730E-03   -0.67730E-03  8512   0.318E-01
DAV:   4    -0.573834594574E+04   -0.20750E-04   -0.20750E-04  9000   0.568E-02
DAV:   5    -0.573834594640E+04   -0.65886E-06   -0.65908E-06  8616   0.111E-02
DAV:   6    -0.573834594644E+04   -0.32825E-07   -0.32761E-07  7184   0.230E-03
DAV:   7    -0.573834594644E+04   -0.14634E-08   -0.14278E-08  4648   0.589E-04
       N       E                     dE             d eps       ncg     rms
RMM:   1    -0.574521654552E+03   -0.57452E+03   -0.13640E+03  6418   0.323E+02
RMM:   2    -0.668435458190E+03   -0.93914E+02   -0.30468E+02 10349   0.430E+01
RMM:   3    -0.675964357840E+03   -0.75289E+01   -0.30610E+01 10895   0.110E+01
RMM:   4    -0.676954276695E+03   -0.98992E+00   -0.30984E+00 11164   0.328E+00
RMM:   5    -0.677062210268E+03   -0.10793E+00   -0.26821E-01 11526   0.100E+00
RMM:   6    -0.677073309669E+03   -0.11099E-01   -0.38173E-02 11254   0.307E-01
RMM:   7    -0.677074818659E+03   -0.15090E-02   -0.51756E-03 11536   0.105E-01
RMM:   8    -0.677075026022E+03   -0.20736E-03   -0.83575E-04 11373   0.355E-02
RMM:   9    -0.677075060484E+03   -0.34463E-04   -0.13049E-04 10934   0.129E-02
RMM:  10    -0.677075066158E+03   -0.56731E-05   -0.25871E-05  9376   0.485E-03
RMM:  11    -0.677075067224E+03   -0.10662E-05   -0.42642E-06  7508   0.194E-03
RMM:  12    -0.677075067414E+03   -0.19029E-06   -0.90695E-07  6179   0.847E-04
RMM:  13    -0.677075067450E+03   -0.36194E-07   -0.14214E-07  5029   0.427E-04
RMM:  14    -0.677075067457E+03   -0.64002E-08   -0.30318E-08  3700   0.274E-04
BDIR= 1  IDIR= 3  IQ=  0
DAV:   1    -0.573839868699E+04   -0.57384E+04   -0.76789E-09  3672   0.605E-04
DAV:   2    -0.573839868699E+04   -0.13824E-09   -0.24108E-09  3552   0.358E-04
       N       E                     dE             d eps       ncg     rms
RMM:   1    -0.574777397667E+03   -0.57478E+03   -0.13678E+03  6423   0.323E+02
RMM:   2    -0.668481119326E+03   -0.93704E+02   -0.30348E+02 10352   0.429E+01
RMM:   3    -0.675952721388E+03   -0.74716E+01   -0.30077E+01 10891   0.109E+01
RMM:   4    -0.676925775634E+03   -0.97305E+00   -0.30627E+00 11164   0.327E+00
RMM:   5    -0.677031783215E+03   -0.10601E+00   -0.26319E-01 11524   0.100E+00
RMM:   6    -0.677042671146E+03   -0.10888E-01   -0.37401E-02 11263   0.306E-01
RMM:   7    -0.677044138219E+03   -0.14671E-02   -0.49466E-03 11520   0.105E-01
RMM:   8    -0.677044342091E+03   -0.20387E-03   -0.80755E-04 11399   0.353E-02
RMM:   9    -0.677044375169E+03   -0.33078E-04   -0.12497E-04 10990   0.127E-02
RMM:  10    -0.677044380543E+03   -0.53741E-05   -0.23942E-05  9306   0.476E-03
RMM:  11    -0.677044381548E+03   -0.10053E-05   -0.40487E-06  7519   0.192E-03
RMM:  12    -0.677044381727E+03   -0.17816E-06   -0.82445E-07  6169   0.840E-04
RMM:  13    -0.677044381760E+03   -0.33355E-07   -0.13711E-07  4959   0.422E-04
RMM:  14    -0.677044381766E+03   -0.57649E-08   -0.25552E-08  3672   0.273E-04
BDIR= 1  IDIR= 3  IQ=  1
DAV:   1    -0.573843353919E+04   -0.57384E+04   -0.17206E+00  5658   0.555E+00
DAV:   2    -0.573845060424E+04   -0.17065E-01   -0.17065E-01  8072   0.180E+00
DAV:   3    -0.573845128151E+04   -0.67728E-03   -0.67727E-03  8432   0.320E-01
DAV:   4    -0.573845130203E+04   -0.20521E-04   -0.20521E-04  8968   0.576E-02
DAV:   5    -0.573845130274E+04   -0.70276E-06   -0.70298E-06  8632   0.115E-02
DAV:   6    -0.573845130277E+04   -0.33451E-07   -0.33263E-07  7112   0.234E-03
DAV:   7    -0.573845130277E+04   -0.16107E-08   -0.15171E-08  4632   0.607E-04
       N       E                     dE             d eps       ncg     rms
RMM:   1    -0.574805918050E+03   -0.57481E+03   -0.13699E+03  6425   0.323E+02
RMM:   2    -0.668406213516E+03   -0.93600E+02   -0.30291E+02 10351   0.429E+01
RMM:   3    -0.675899219350E+03   -0.74930E+01   -0.30241E+01 10892   0.109E+01
RMM:   4    -0.676877149315E+03   -0.97793E+00   -0.30411E+00 11152   0.326E+00
RMM:   5    -0.676983249724E+03   -0.10610E+00   -0.26639E-01 11517   0.101E+00
RMM:   6    -0.676994194802E+03   -0.10945E-01   -0.37086E-02 11256   0.307E-01
RMM:   7    -0.676995662362E+03   -0.14676E-02   -0.49499E-03 11519   0.105E-01
RMM:   8    -0.676995869572E+03   -0.20721E-03   -0.82801E-04 11397   0.354E-02
RMM:   9    -0.676995903841E+03   -0.34269E-04   -0.13069E-04 10971   0.128E-02
RMM:  10    -0.676995909446E+03   -0.56045E-05   -0.24614E-05  9328   0.479E-03
RMM:  11    -0.676995910502E+03   -0.10569E-05   -0.43351E-06  7543   0.193E-03
RMM:  12    -0.676995910688E+03   -0.18574E-06   -0.84554E-07  6170   0.843E-04
RMM:  13    -0.676995910724E+03   -0.35475E-07   -0.14933E-07  4958   0.425E-04
RMM:  14    -0.676995910730E+03   -0.60127E-08   -0.26371E-08  3685   0.274E-04
       N       E                     dE             d eps       ncg     rms
RLQ:   1    -0.130842977544E+02   -0.13084E+02   -0.15088E+03  5520   0.356E+02
RLQ:   2    -0.171044322901E+02   -0.40201E+01   -0.12908E+01 10919   0.586E+00
RLQ:   3    -0.173944866385E+02   -0.29005E+00   -0.79853E-01 10432   0.145E+00
RLQ:   4    -0.174247436322E+02   -0.30257E-01   -0.98370E-02 10835   0.469E-01
RLQ:   5    -0.174286901618E+02   -0.39465E-02   -0.10940E-02 10125   0.149E-01
RLQ:   6    -0.174291302457E+02   -0.44008E-03   -0.13345E-03 10331   0.506E-02
RLQ:   7    -0.174291894424E+02   -0.59197E-04   -0.19875E-04 10306   0.167E-02
RLQ:   8    -0.174291965559E+02   -0.71135E-05   -0.20820E-05 10116   0.573E-03
RLQ:   9    -0.174291975153E+02   -0.95941E-06   -0.42077E-06  9029   0.204E-03
RLQ:  10    -0.174291976397E+02   -0.12435E-06   -0.36377E-07  6807   0.703E-04
RLQ:  11    -0.174291976563E+02   -0.16665E-07   -0.75187E-08  4489   0.336E-04
RLQ:  12    -0.174291976586E+02   -0.22649E-08   -0.70419E-09  3269   0.236E-04
BDIR= 2  IDIR= 1  IQ= -1
DAV:   1    -0.573839394749E+04   -0.57384E+04   -0.16957E+00  5685   0.553E+00
DAV:   2    -0.573840944294E+04   -0.15495E-01   -0.15495E-01  8040   0.179E+00
DAV:   3    -0.573840996101E+04   -0.51807E-03   -0.51807E-03  8672   0.308E-01
DAV:   4    -0.573840997550E+04   -0.14492E-04   -0.14492E-04  8832   0.514E-02
DAV:   5    -0.573840997603E+04   -0.52662E-06   -0.52671E-06  8952   0.103E-02
DAV:   6    -0.573840997605E+04   -0.23249E-07   -0.23166E-07  6840   0.217E-03
DAV:   7    -0.573840997605E+04   -0.11878E-08   -0.10805E-08  4464   0.571E-04
       N       E                     dE             d eps       ncg     rms
RMM:   1    -0.552803646922E+03   -0.55280E+03   -0.14099E+03  6157   0.355E+02
RMM:   2    -0.665025636481E+03   -0.11222E+03   -0.35930E+02 10051   0.455E+01
RMM:   3    -0.675519689874E+03   -0.10494E+02   -0.49726E+01 10814   0.124E+01
RMM:   4    -0.676909493377E+03   -0.13898E+01   -0.38604E+00 11046   0.356E+00
RMM:   5    -0.677058565847E+03   -0.14907E+00   -0.46044E-01 11215   0.112E+00
RMM:   6    -0.677077764115E+03   -0.19198E-01   -0.73238E-02 11239   0.388E-01
RMM:   7    -0.677081035813E+03   -0.32717E-02   -0.13103E-02 11507   0.140E-01
RMM:   8    -0.677081609950E+03   -0.57414E-03   -0.25268E-03 11224   0.496E-02
RMM:   9    -0.677081709739E+03   -0.99789E-04   -0.29278E-04 10917   0.179E-02
RMM:  10    -0.677081722845E+03   -0.13106E-04   -0.59596E-05  9782   0.700E-03
RMM:  11    -0.677081725547E+03   -0.27018E-05   -0.96982E-06  8011   0.275E-03
RMM:  12    -0.677081725981E+03   -0.43371E-06   -0.20346E-06  6248   0.118E-03
RMM:  13    -0.677081726071E+03   -0.90353E-07   -0.32558E-07  5091   0.538E-04
RMM:  14    -0.677081726085E+03   -0.13487E-07   -0.59329E-08  4087   0.319E-04
RMM:  15    -0.677081726087E+03   -0.27450E-08   -0.10169E-08  3225   0.240E-04
BDIR= 2  IDIR= 1  IQ=  0
DAV:   1    -0.573839868699E+04   -0.57384E+04   -0.76749E-09  3672   0.605E-04
DAV:   2    -0.573839868699E+04   -0.42201E-09   -0.24064E-09  3552   0.358E-04
       N       E                     dE             d eps       ncg     rms
RMM:   1    -0.553142120266E+03   -0.55314E+03   -0.14115E+03  6159   0.355E+02
RMM:   2    -0.665230253630E+03   -0.11209E+03   -0.35852E+02 10052   0.454E+01
RMM:   3    -0.675698085278E+03   -0.10468E+02   -0.49523E+01 10814   0.124E+01
RMM:   4    -0.677086382827E+03   -0.13883E+01   -0.38494E+00 11047   0.355E+00
RMM:   5    -0.677234875235E+03   -0.14849E+00   -0.45932E-01 11227   0.112E+00
RMM:   6    -0.677253855391E+03   -0.18980E-01   -0.72010E-02 11237   0.386E-01
RMM:   7    -0.677257066692E+03   -0.32113E-02   -0.12984E-02 11499   0.139E-01
RMM:   8    -0.677257627426E+03   -0.56073E-03   -0.24576E-03 11238   0.493E-02
RMM:   9    -0.677257725319E+03   -0.97893E-04   -0.29386E-04 10927   0.178E-02
RMM:  10    -0.677257738406E+03   -0.13087E-04   -0.59849E-05  9812   0.699E-03
RMM:  11    -0.677257741130E+03   -0.27243E-05   -0.97708E-06  7993   0.274E-03
RMM:  12    -0.677257741568E+03   -0.43851E-06   -0.20480E-06  6238   0.118E-03
RMM:  13    -0.677257741661E+03   -0.92613E-07   -0.33801E-07  5112   0.541E-04
RMM:  14    -0.677257741675E+03   -0.14118E-07   -0.61375E-08  4092   0.318E-04
RMM:  15    -0.677257741678E+03   -0.29072E-08   -0.10991E-08  3217   0.238E-04
BDIR= 2  IDIR= 1  IQ=  1
DAV:   1    -0.573837124209E+04   -0.57384E+04   -0.16957E+00  5677   0.553E+00
DAV:   2    -0.573838673577E+04   -0.15494E-01   -0.15494E-01  8032   0.179E+00
DAV:   3    -0.573838725744E+04   -0.52167E-03   -0.52167E-03  8608   0.309E-01
DAV:   4    -0.573838727261E+04   -0.15167E-04   -0.15166E-04  8904   0.524E-02
DAV:   5    -0.573838727315E+04   -0.54228E-06   -0.54231E-06  8976   0.104E-02
DAV:   6    -0.573838727317E+04   -0.23510E-07   -0.23586E-07  6776   0.217E-03
DAV:   7    -0.573838727317E+04   -0.10923E-08   -0.11066E-08  4496   0.567E-04
       N       E                     dE             d eps       ncg     rms
RMM:   1    -0.553239839432E+03   -0.55324E+03   -0.14112E+03  6161   0.355E+02
RMM:   2    -0.665347102820E+03   -0.11211E+03   -0.35898E+02 10051   0.455E+01
RMM:   3    -0.675858674917E+03   -0.10512E+02   -0.49819E+01 10816   0.124E+01
RMM:   4    -0.677245627060E+03   -0.13870E+01   -0.38399E+00 11046   0.355E+00
RMM:   5    -0.677393434874E+03   -0.14781E+00   -0.45731E-01 11230   0.112E+00
RMM:   6    -0.677412272343E+03   -0.18837E-01   -0.71493E-02 11235   0.386E-01
RMM:   7    -0.677415447582E+03   -0.31752E-02   -0.12844E-02 11497   0.139E-01
RMM:   8    -0.677415997622E+03   -0.55004E-03   -0.23986E-03 11220   0.492E-02
RMM:   9    -0.677416094916E+03   -0.97294E-04   -0.30305E-04 10941   0.179E-02
RMM:  10    -0.677416108278E+03   -0.13361E-04   -0.60538E-05  9828   0.703E-03
RMM:  11    -0.677416111049E+03   -0.27714E-05   -0.10075E-05  7978   0.274E-03
RMM:  12    -0.677416111494E+03   -0.44503E-06   -0.20747E-06  6225   0.118E-03
RMM:  13    -0.677416111587E+03   -0.93484E-07   -0.33204E-07  5104   0.539E-04
RMM:  14    -0.677416111601E+03   -0.13520E-07   -0.59559E-08  4089   0.318E-04
RMM:  15    -0.677416111604E+03   -0.28654E-08   -0.10948E-08  3219   0.239E-04
BDIR= 2  IDIR= 3  IQ= -1
DAV:   1    -0.573832824095E+04   -0.57383E+04   -0.17222E+00  5661   0.555E+00
DAV:   2    -0.573834524769E+04   -0.17007E-01   -0.17006E-01  8088   0.180E+00
DAV:   3    -0.573834592499E+04   -0.67730E-03   -0.67730E-03  8512   0.318E-01
DAV:   4    -0.573834594574E+04   -0.20750E-04   -0.20750E-04  9000   0.568E-02
DAV:   5    -0.573834594640E+04   -0.65900E-06   -0.65908E-06  8616   0.111E-02
DAV:   6    -0.573834594644E+04   -0.32650E-07   -0.32760E-07  7184   0.230E-03
DAV:   7    -0.573834594644E+04   -0.17353E-08   -0.14272E-08  4648   0.589E-04
       N       E                     dE             d eps       ncg     rms
RMM:   1    -0.578546707591E+03   -0.57855E+03   -0.13163E+03  6542   0.315E+02
RMM:   2    -0.669244901724E+03   -0.90698E+02   -0.28443E+02 10371   0.417E+01
RMM:   3    -0.676395164959E+03   -0.71503E+01   -0.27459E+01 10923   0.107E+01
RMM:   4    -0.677202169833E+03   -0.80700E+00   -0.23948E+00 11205   0.309E+00
RMM:   5    -0.677282251300E+03   -0.80081E-01   -0.21353E-01 11510   0.967E-01
RMM:   6    -0.677291001993E+03   -0.87507E-02   -0.29425E-02 11284   0.289E-01
RMM:   7    -0.677292132833E+03   -0.11308E-02   -0.37899E-03 11540   0.996E-02
RMM:   8    -0.677292298205E+03   -0.16537E-03   -0.65311E-04 11351   0.326E-02
RMM:   9    -0.677292324590E+03   -0.26385E-04   -0.92946E-05 10975   0.118E-02
RMM:  10    -0.677292328787E+03   -0.41972E-05   -0.17757E-05  9229   0.429E-03
RMM:  11    -0.677292329573E+03   -0.78616E-06   -0.29741E-06  7449   0.169E-03
RMM:  12    -0.677292329705E+03   -0.13177E-06   -0.55156E-07  6043   0.736E-04
RMM:  13    -0.677292329732E+03   -0.26891E-07   -0.10639E-07  4765   0.386E-04
RMM:  14    -0.677292329736E+03   -0.43349E-08   -0.17399E-08  3506   0.260E-04
BDIR= 2  IDIR= 3  IQ=  0
DAV:   1    -0.573839868699E+04   -0.57384E+04   -0.76983E-09  3680   0.605E-04
DAV:   2    -0.573839868699E+04   -0.25648E-09   -0.23973E-09  3552   0.357E-04
       N       E                     dE             d eps       ncg     rms
RMM:   1    -0.578346833892E+03   -0.57835E+03   -0.13135E+03  6537   0.315E+02
RMM:   2    -0.669187926538E+03   -0.90841E+02   -0.28500E+02 10367   0.418E+01
RMM:   3    -0.676375206340E+03   -0.71873E+01   -0.27728E+01 10927   0.107E+01
RMM:   4    -0.677188642921E+03   -0.81344E+00   -0.23892E+00 11222   0.308E+00
RMM:   5    -0.677268427445E+03   -0.79785E-01   -0.21432E-01 11505   0.966E-01
RMM:   6    -0.677277182647E+03   -0.87552E-02   -0.29212E-02 11262   0.290E-01
RMM:   7    -0.677278330377E+03   -0.11477E-02   -0.38458E-03 11515   0.100E-01
RMM:   8    -0.677278496803E+03   -0.16643E-03   -0.65127E-04 11370   0.328E-02
RMM:   9    -0.677278523271E+03   -0.26468E-04   -0.94178E-05 10964   0.118E-02
RMM:  10    -0.677278527469E+03   -0.41983E-05   -0.17485E-05  9227   0.428E-03
RMM:  11    -0.677278528269E+03   -0.79980E-06   -0.30827E-06  7461   0.170E-03
RMM:  12    -0.677278528401E+03   -0.13271E-06   -0.55037E-07  6005   0.735E-04
RMM:  13    -0.677278528429E+03   -0.27183E-07   -0.10850E-07  4796   0.386E-04
RMM:  14    -0.677278528433E+03   -0.42588E-08   -0.17002E-08  3477   0.259E-04
BDIR= 2  IDIR= 3  IQ=  1
DAV:   1    -0.573843353919E+04   -0.57384E+04   -0.17206E+00  5658   0.555E+00
DAV:   2    -0.573845060424E+04   -0.17065E-01   -0.17065E-01  8072   0.180E+00
DAV:   3    -0.573845128151E+04   -0.67727E-03   -0.67727E-03  8432   0.320E-01
DAV:   4    -0.573845130203E+04   -0.20521E-04   -0.20521E-04  8968   0.576E-02
DAV:   5    -0.573845130274E+04   -0.70277E-06   -0.70298E-06  8632   0.115E-02
DAV:   6    -0.573845130277E+04   -0.33368E-07   -0.33265E-07  7120   0.234E-03
DAV:   7    -0.573845130277E+04   -0.15698E-08   -0.15149E-08  4632   0.605E-04
       N       E                     dE             d eps       ncg     rms
RMM:   1    -0.578248688247E+03   -0.57825E+03   -0.13121E+03  6534   0.315E+02
RMM:   2    -0.669110117802E+03   -0.90861E+02   -0.28508E+02 10361   0.419E+01
RMM:   3    -0.676329973150E+03   -0.72199E+01   -0.28107E+01 10914   0.108E+01
RMM:   4    -0.677156671232E+03   -0.82670E+00   -0.24145E+00 11220   0.310E+00
RMM:   5    -0.677236777627E+03   -0.80106E-01   -0.21450E-01 11503   0.970E-01
RMM:   6    -0.677245542271E+03   -0.87646E-02   -0.29095E-02 11249   0.291E-01
RMM:   7    -0.677246700168E+03   -0.11579E-02   -0.38677E-03 11523   0.101E-01
RMM:   8    -0.677246871381E+03   -0.17121E-03   -0.65788E-04 11322   0.330E-02
RMM:   9    -0.677246898578E+03   -0.27197E-04   -0.95499E-05 10981   0.119E-02
RMM:  10    -0.677246902789E+03   -0.42109E-05   -0.17307E-05  9193   0.429E-03
RMM:  11    -0.677246903585E+03   -0.79628E-06   -0.30463E-06  7478   0.171E-03
RMM:  12    -0.677246903717E+03   -0.13252E-06   -0.54995E-07  5992   0.739E-04
RMM:  13    -0.677246903744E+03   -0.26953E-07   -0.10610E-07  4768   0.388E-04
RMM:  14    -0.677246903749E+03   -0.42182E-08   -0.16905E-08  3502   0.262E-04
       N       E                     dE             d eps       ncg     rms
RLQ:   1    -0.131009335897E+02   -0.13101E+02   -0.15123E+03  5520   0.353E+02
RLQ:   2    -0.171343788587E+02   -0.40334E+01   -0.12967E+01 10936   0.580E+00
RLQ:   3    -0.174265447971E+02   -0.29217E+00   -0.80368E-01 10363   0.144E+00
RLQ:   4    -0.174566075035E+02   -0.30063E-01   -0.10044E-01 10845   0.470E-01
RLQ:   5    -0.174606873609E+02   -0.40799E-02   -0.11084E-02 10001   0.145E-01
RLQ:   6    -0.174611269947E+02   -0.43963E-03   -0.13680E-03 10325   0.503E-02
RLQ:   7    -0.174611899839E+02   -0.62989E-04   -0.21290E-04 10225   0.164E-02
RLQ:   8    -0.174611972282E+02   -0.72443E-05   -0.21850E-05 10149   0.561E-03
RLQ:   9    -0.174611982167E+02   -0.98852E-06   -0.41740E-06  9088   0.198E-03
RLQ:  10    -0.174611983437E+02   -0.12697E-06   -0.39325E-07  6703   0.688E-04
RLQ:  11    -0.174611983616E+02   -0.17863E-07   -0.81905E-08  4366   0.335E-04
RLQ:  12    -0.174611983641E+02   -0.25633E-08   -0.84466E-09  3284   0.237E-04
BDIR= 3  IDIR= 1  IQ= -1
DAV:   1    -0.573839394749E+04   -0.57384E+04   -0.16957E+00  5685   0.553E+00
DAV:   2    -0.573840944294E+04   -0.15495E-01   -0.15495E-01  8040   0.179E+00
DAV:   3    -0.573840996101E+04   -0.51807E-03   -0.51807E-03  8672   0.308E-01
DAV:   4    -0.573840997550E+04   -0.14492E-04   -0.14492E-04  8832   0.514E-02
DAV:   5    -0.573840997603E+04   -0.52684E-06   -0.52671E-06  8952   0.103E-02
DAV:   6    -0.573840997605E+04   -0.23089E-07   -0.23166E-07  6840   0.217E-03
DAV:   7    -0.573840997605E+04   -0.11360E-08   -0.10851E-08  4472   0.571E-04
       N       E                     dE             d eps       ncg     rms
RMM:   1    -0.574758200029E+03   -0.57476E+03   -0.13681E+03  6424   0.323E+02
RMM:   2    -0.668439350405E+03   -0.93681E+02   -0.30337E+02 10349   0.429E+01
RMM:   3    -0.675932414268E+03   -0.74931E+01   -0.30266E+01 10897   0.109E+01
RMM:   4    -0.676908713019E+03   -0.97630E+00   -0.30419E+00 11157   0.326E+00
RMM:   5    -0.677014107314E+03   -0.10539E+00   -0.26368E-01 11514   0.100E+00
RMM:   6    -0.677025063398E+03   -0.10956E-01   -0.37537E-02 11255   0.307E-01
RMM:   7    -0.677026543282E+03   -0.14799E-02   -0.49948E-03 11517   0.105E-01
RMM:   8    -0.677026749723E+03   -0.20644E-03   -0.81465E-04 11409   0.354E-02
RMM:   9    -0.677026783645E+03   -0.33922E-04   -0.12917E-04 10995   0.129E-02
RMM:  10    -0.677026789223E+03   -0.55786E-05   -0.24792E-05  9361   0.484E-03
RMM:  11    -0.677026790277E+03   -0.10537E-05   -0.42570E-06  7536   0.194E-03
RMM:  12    -0.677026790462E+03   -0.18540E-06   -0.85392E-07  6201   0.850E-04
RMM:  13    -0.677026790498E+03   -0.35481E-07   -0.14651E-07  4988   0.427E-04
RMM:  14    -0.677026790504E+03   -0.60249E-08   -0.26565E-08  3681   0.274E-04
BDIR= 3  IDIR= 1  IQ=  0
DAV:   1    -0.573839868699E+04   -0.57384E+04   -0.77000E-09  3680   0.605E-04
DAV:   2    -0.573839868699E+04   -0.23920E-09   -0.23881E-09  3552   0.357E-04
       N       E                     dE             d eps       ncg     rms
RMM:   1    -0.574777397600E+03   -0.57478E+03   -0.13678E+03  6423   0.323E+02
RMM:   2    -0.668481119226E+03   -0.93704E+02   -0.30348E+02 10352   0.429E+01
RMM:   3    -0.675952721287E+03   -0.74716E+01   -0.30077E+01 10891   0.109E+01
RMM:   4    -0.676925775533E+03   -0.97305E+00   -0.30627E+00 11164   0.327E+00
RMM:   5    -0.677031783114E+03   -0.10601E+00   -0.26319E-01 11524   0.100E+00
RMM:   6    -0.677042671045E+03   -0.10888E-01   -0.37401E-02 11263   0.306E-01
RMM:   7    -0.677044138118E+03   -0.14671E-02   -0.49466E-03 11520   0.105E-01
RMM:   8    -0.677044341991E+03   -0.20387E-03   -0.80755E-04 11399   0.353E-02
RMM:   9    -0.677044375068E+03   -0.33078E-04   -0.12497E-04 10990   0.127E-02
RMM:  10    -0.677044380443E+03   -0.53741E-05   -0.23942E-05  9306   0.476E-03
RMM:  11    -0.677044381448E+03   -0.10053E-05   -0.40488E-06  7519   0.192E-03
RMM:  12    -0.677044381626E+03   -0.17816E-06   -0.82445E-07  6169   0.840E-04
RMM:  13    -0.677044381659E+03   -0.33356E-07   -0.13711E-07  4959   0.422E-04
RMM:  14    -0.677044381665E+03   -0.57652E-08   -0.25552E-08  3672   0.273E-04
BDIR= 3  IDIR= 1  IQ=  1
DAV:   1    -0.573837124209E+04   -0.57384E+04   -0.16957E+00  5677   0.553E+00
DAV:   2    -0.573838673577E+04   -0.15494E-01   -0.15494E-01  8032   0.179E+00
DAV:   3    -0.573838725744E+04   -0.52167E-03   -0.52167E-03  8608   0.309E-01
DAV:   4    -0.573838727261E+04   -0.15167E-04   -0.15166E-04  8904   0.524E-02
DAV:   5    -0.573838727315E+04   -0.54241E-06   -0.54231E-06  8976   0.104E-02
DAV:   6    -0.573838727317E+04   -0.23654E-07   -0.23586E-07  6776   0.217E-03
DAV:   7    -0.573838727317E+04   -0.82946E-09   -0.11066E-08  4496   0.567E-04
       N       E                     dE             d eps       ncg     rms
RMM:   1    -0.574667041788E+03   -0.57467E+03   -0.13665E+03  6421   0.323E+02
RMM:   2    -0.668448208927E+03   -0.93781E+02   -0.30397E+02 10351   0.429E+01
RMM:   3    -0.675947546034E+03   -0.74993E+01   -0.30325E+01 10894   0.110E+01
RMM:   4    -0.676925451864E+03   -0.97791E+00   -0.30644E+00 11165   0.327E+00
RMM:   5    -0.677031312859E+03   -0.10586E+00   -0.26408E-01 11525   0.100E+00
RMM:   6    -0.677042162182E+03   -0.10849E-01   -0.37187E-02 11250   0.306E-01
RMM:   7    -0.677043622064E+03   -0.14599E-02   -0.49008E-03 11519   0.105E-01
RMM:   8    -0.677043826982E+03   -0.20492E-03   -0.81751E-04 11406   0.354E-02
RMM:   9    -0.677043860784E+03   -0.33802E-04   -0.12656E-04 10976   0.128E-02
RMM:  10    -0.677043866216E+03   -0.54323E-05   -0.24073E-05  9342   0.480E-03
RMM:  11    -0.677043867213E+03   -0.99674E-06   -0.40272E-06  7536   0.193E-03
RMM:  12    -0.677043867388E+03   -0.17549E-06   -0.81119E-07  6196   0.841E-04
RMM:  13    -0.677043867421E+03   -0.32528E-07   -0.13267E-07  5013   0.422E-04
RMM:  14    -0.677043867426E+03   -0.56078E-08   -0.24837E-08  3678   0.272E-04
BDIR= 3  IDIR= 2  IQ= -1
DAV:   1    -0.573831697167E+04   -0.57383E+04   -0.16848E+00  5680   0.554E+00
DAV:   2    -0.573833298964E+04   -0.16018E-01   -0.16018E-01  8088   0.180E+00
DAV:   3    -0.573833335485E+04   -0.36521E-03   -0.36521E-03  8920   0.291E-01
DAV:   4    -0.573833336504E+04   -0.10188E-04   -0.10188E-04  8960   0.457E-02
DAV:   5    -0.573833336541E+04   -0.37336E-06   -0.37304E-06  8944   0.870E-03
DAV:   6    -0.573833336543E+04   -0.16456E-07   -0.16404E-07  6512   0.173E-03
DAV:   7    -0.573833336543E+04   -0.60754E-09   -0.84410E-09  4504   0.493E-04
       N       E                     dE             d eps       ncg     rms
RMM:   1    -0.578468927276E+03   -0.57847E+03   -0.13136E+03  6540   0.315E+02
RMM:   2    -0.669208531390E+03   -0.90740E+02   -0.28469E+02 10374   0.418E+01
RMM:   3    -0.676405932621E+03   -0.71974E+01   -0.27975E+01 10928   0.107E+01
RMM:   4    -0.677230404503E+03   -0.82447E+00   -0.24116E+00 11220   0.309E+00
RMM:   5    -0.677310788185E+03   -0.80384E-01   -0.21855E-01 11502   0.970E-01
RMM:   6    -0.677319712069E+03   -0.89239E-02   -0.29657E-02 11254   0.291E-01
RMM:   7    -0.677320892248E+03   -0.11802E-02   -0.40087E-03 11533   0.101E-01
RMM:   8    -0.677321063978E+03   -0.17173E-03   -0.67251E-04 11347   0.331E-02
RMM:   9    -0.677321091649E+03   -0.27671E-04   -0.98983E-05 10972   0.120E-02
RMM:  10    -0.677321096077E+03   -0.44282E-05   -0.18499E-05  9228   0.434E-03
RMM:  11    -0.677321096923E+03   -0.84572E-06   -0.32600E-06  7462   0.172E-03
RMM:  12    -0.677321097062E+03   -0.13933E-06   -0.57511E-07  5966   0.742E-04
RMM:  13    -0.677321097091E+03   -0.28780E-07   -0.11582E-07  4780   0.391E-04
RMM:  14    -0.677321097095E+03   -0.45169E-08   -0.18039E-08  3507   0.262E-04
BDIR= 3  IDIR= 2  IQ=  0
DAV:   1    -0.573839868699E+04   -0.57384E+04   -0.76948E-09  3680   0.605E-04
DAV:   2    -0.573839868699E+04   -0.37289E-09   -0.24008E-09  3552   0.357E-04
       N       E                     dE             d eps       ncg     rms
RMM:   1    -0.578346833892E+03   -0.57835E+03   -0.13135E+03  6537   0.315E+02
RMM:   2    -0.669187926538E+03   -0.90841E+02   -0.28500E+02 10367   0.418E+01
RMM:   3    -0.676375206340E+03   -0.71873E+01   -0.27728E+01 10927   0.107E+01
RMM:   4    -0.677188642921E+03   -0.81344E+00   -0.23892E+00 11222   0.308E+00
RMM:   5    -0.677268427445E+03   -0.79785E-01   -0.21432E-01 11505   0.966E-01
RMM:   6    -0.677277182647E+03   -0.87552E-02   -0.29212E-02 11262   0.290E-01
RMM:   7    -0.677278330377E+03   -0.11477E-02   -0.38458E-03 11515   0.100E-01
RMM:   8    -0.677278496803E+03   -0.16643E-03   -0.65127E-04 11370   0.328E-02
RMM:   9    -0.677278523271E+03   -0.26468E-04   -0.94178E-05 10964   0.118E-02
RMM:  10    -0.677278527469E+03   -0.41983E-05   -0.17485E-05  9227   0.428E-03
RMM:  11    -0.677278528269E+03   -0.79980E-06   -0.30827E-06  7461   0.170E-03
RMM:  12    -0.677278528401E+03   -0.13271E-06   -0.55037E-07  6005   0.735E-04
RMM:  13    -0.677278528429E+03   -0.27183E-07   -0.10850E-07  4796   0.386E-04
RMM:  14    -0.677278528433E+03   -0.42587E-08   -0.17002E-08  3477   0.259E-04
BDIR= 3  IDIR= 2  IQ=  1
DAV:   1    -0.573844746747E+04   -0.57384E+04   -0.16845E+00  5680   0.554E+00
DAV:   2    -0.573846352339E+04   -0.16056E-01   -0.16056E-01  8104   0.180E+00
DAV:   3    -0.573846387196E+04   -0.34857E-03   -0.34857E-03  8968   0.288E-01
DAV:   4    -0.573846388149E+04   -0.95296E-05   -0.95295E-05  8944   0.449E-02
DAV:   5    -0.573846388185E+04   -0.35290E-06   -0.35296E-06  8920   0.860E-03
DAV:   6    -0.573846388186E+04   -0.15676E-07   -0.15471E-07  6624   0.172E-03
DAV:   7    -0.573846388186E+04   -0.69667E-09   -0.79346E-09  4480   0.490E-04
       N       E                     dE             d eps       ncg     rms
RMM:   1    -0.578247941020E+03   -0.57825E+03   -0.13141E+03  6533   0.315E+02
RMM:   2    -0.669136551513E+03   -0.90889E+02   -0.28512E+02 10364   0.418E+01
RMM:   3    -0.676317003617E+03   -0.71805E+01   -0.27700E+01 10925   0.107E+01
RMM:   4    -0.677128249375E+03   -0.81125E+00   -0.23771E+00 11218   0.308E+00
RMM:   5    -0.677207792420E+03   -0.79543E-01   -0.21165E-01 11499   0.964E-01
RMM:   6    -0.677216491697E+03   -0.86993E-02   -0.28911E-02 11289   0.289E-01
RMM:   7    -0.677217611454E+03   -0.11198E-02   -0.37374E-03 11511   0.995E-02
RMM:   8    -0.677217775447E+03   -0.16399E-03   -0.63210E-04 11364   0.325E-02
RMM:   9    -0.677217801136E+03   -0.25688E-04   -0.90205E-05 10975   0.117E-02
RMM:  10    -0.677217805132E+03   -0.39959E-05   -0.16557E-05  9196   0.422E-03
RMM:  11    -0.677217805874E+03   -0.74179E-06   -0.28010E-06  7461   0.166E-03
RMM:  12    -0.677217805996E+03   -0.12280E-06   -0.50807E-07  6001   0.720E-04
RMM:  13    -0.677217806021E+03   -0.24632E-07   -0.96839E-08  4766   0.379E-04
RMM:  14    -0.677217806025E+03   -0.38733E-08   -0.15404E-08  3460   0.257E-04
       N       E                     dE             d eps       ncg     rms
RLQ:   1    -0.130610857229E+02   -0.13061E+02   -0.15077E+03  5520   0.349E+02
RLQ:   2    -0.171379469609E+02   -0.40769E+01   -0.13418E+01 10829   0.579E+00
RLQ:   3    -0.174129097616E+02   -0.27496E+00   -0.69536E-01 10360   0.142E+00
RLQ:   4    -0.174386740359E+02   -0.25764E-01   -0.90484E-02 10876   0.452E-01
RLQ:   5    -0.174421805855E+02   -0.35065E-02   -0.89075E-03 10077   0.140E-01
RLQ:   6    -0.174425625042E+02   -0.38192E-03   -0.11674E-03 10344   0.475E-02
RLQ:   7    -0.174426098154E+02   -0.47311E-04   -0.15215E-04 10258   0.157E-02
RLQ:   8    -0.174426153993E+02   -0.55839E-05   -0.18678E-05 10080   0.541E-03
RLQ:   9    -0.174426161651E+02   -0.76580E-06   -0.30522E-06  9068   0.192E-03
RLQ:  10    -0.174426162638E+02   -0.98733E-07   -0.33879E-07  7022   0.684E-04
RLQ:  11    -0.174426162794E+02   -0.15576E-07   -0.71417E-08  4594   0.329E-04
RLQ:  12    -0.174426162811E+02   -0.16861E-08   -0.51356E-09  3179   0.230E-04
 writing wavefunctions
Note: The following floating-point exceptions are signalling: IEEE_INVALID_FLAG IEEE_OVERFLOW_FLAG IEEE_UNDERFLOW_FLAG IEEE_DENORMAL

real	629m1,949s
user	628m27,283s
sys	0m31,882s
/data/ozakary/5011.OUT
total 0
rm: impossible de supprimer '/data/ozakary/5011.OUT/*': Aucun fichier ou dossier de ce type
Job finished at
ven. 27 janv. 2023 21:22:26 CET
