Loading vasp/6.2.1-gcc-10.2
  Loading requirement: hdf5/1.12.1-gcc-10.2 wannier90/3.1.0-gcc-10.2
 ----------------------------------------------------
    OOO  PPPP  EEEEE N   N M   M PPPP
   O   O P   P E     NN  N MM MM P   P
   O   O PPPP  EEEEE N N N M M M PPPP   -- VERSION
   O   O P     E     N  NN M   M P
    OOO  P     EEEEE N   N M   M P
 ----------------------------------------------------
 running    1 mpi-ranks, with    1 threads/rank
 distrk:  each k-point on    1 cores,    1 groups
 distr:  one band on    1 cores,    1 groups
 vasp.6.2.1 16May21 (build Jan  3 2022 11:18:50) complex                         
 POSCAR found type information on POSCAR NaTaO F 
 POSCAR found :  4 types and      24 ions
 Reading from existing POTCAR
 scaLAPACK will be used
 Reading from existing POTCAR
 LDA part: xc-table for Pade appr. of Perdew
 POSCAR, INCAR and KPOINTS ok, starting setup
 FFT: planning ...
 WAVECAR not read
 entering main loop
       N       E                     dE             d eps       ncg     rms          rms(c)
DAV:   1     0.354548747886E+04    0.35455E+04   -0.10415E+05  5560   0.190E+03
DAV:   2     0.411086480037E+03   -0.31344E+04   -0.29344E+04  5575   0.722E+02
DAV:   3    -0.207002389979E+03   -0.61809E+03   -0.60471E+03  8780   0.344E+02
DAV:   4    -0.241102605997E+03   -0.34100E+02   -0.33990E+02  8760   0.980E+01
DAV:   5    -0.241630123347E+03   -0.52752E+00   -0.52670E+00  8568   0.140E+01    0.114E+02
DAV:   6    -0.198767389919E+03    0.42863E+02   -0.18040E+02  8624   0.624E+01    0.197E+02
DAV:   7    -0.202499676596E+03   -0.37323E+01   -0.12820E+01  8464   0.180E+01    0.174E+02
DAV:   8    -0.205328247375E+03   -0.28286E+01   -0.25019E+01  8272   0.254E+01    0.319E+02
DAV:   9    -0.196470506555E+03    0.88577E+01   -0.29157E+01  8768   0.247E+01    0.292E+02
DAV:  10    -0.196867957541E+03   -0.39745E+00   -0.43888E+00  8352   0.108E+01    0.220E+02
DAV:  11    -0.196645303498E+03    0.22265E+00   -0.39204E-01  9064   0.337E+00    0.155E+02
DAV:  12    -0.196507354511E+03    0.13795E+00   -0.30094E-01  8312   0.329E+00    0.234E+01
DAV:  13    -0.196484862234E+03    0.22492E-01   -0.10596E-01  8576   0.145E+00    0.650E+00
DAV:  14    -0.196484028297E+03    0.83394E-03   -0.20061E-02  8392   0.723E-01    0.273E-01
DAV:  15    -0.196484184049E+03   -0.15575E-03   -0.31011E-03  8712   0.349E-01    0.732E-01
DAV:  16    -0.196484297570E+03   -0.11352E-03   -0.95281E-04  8648   0.184E-01    0.872E-01
DAV:  17    -0.196484329253E+03   -0.31682E-04   -0.18754E-04  9296   0.893E-02    0.592E-02
DAV:  18    -0.196484343563E+03   -0.14311E-04   -0.55780E-05  7992   0.367E-02    0.118E-01
DAV:  19    -0.196484346556E+03   -0.29934E-05   -0.23602E-05  8352   0.253E-02    0.257E-02
DAV:  20    -0.196484346879E+03   -0.32210E-06   -0.32083E-06  8672   0.117E-02    0.412E-03
DAV:  21    -0.196484347128E+03   -0.24987E-06   -0.14755E-06  7720   0.544E-03    0.274E-03
DAV:  22    -0.196484347182E+03   -0.54042E-07   -0.22618E-07  7424   0.204E-03    0.353E-03
DAV:  23    -0.196484347209E+03   -0.26117E-07   -0.20980E-08  4096   0.979E-04    0.656E-04
DAV:  24    -0.196484347216E+03   -0.70868E-08   -0.16418E-08  3784   0.821E-04
ion   1
     0.0000000     0.0632798     0.0589006    -0.0104381     0.0399490    -0.0437656
     0.0000330     0.0632798     0.0589006    -0.0104381     0.0399490    -0.0437656
     0.0000455     0.0632798     0.0589006    -0.0104381     0.0399490    -0.0437656
     0.0000627     0.0632798     0.0589006    -0.0104381     0.0399490    -0.0437656
     0.0000863     0.0632798     0.0589006    -0.0104381     0.0399490    -0.0437656

     0.0000000     1.5416889     2.9073063     1.2274740     0.5657877    -4.9569211
     0.0000330     1.5416878     2.9073040     1.2274730     0.5657873    -4.9569171
     0.0000455     1.5416870     2.9073025     1.2274723     0.5657870    -4.9569145
     0.0000627     1.5416857     2.9073000     1.2274712     0.5657866    -4.9569102
     0.0000863     1.5416836     2.9072959     1.2274694     0.5657858    -4.9569030

ion   2
     0.0000000     0.0632798     0.0589006    -0.0104381     0.0399490    -0.0437656
     0.0000330     0.0632798     0.0589006    -0.0104381     0.0399490    -0.0437656
     0.0000455     0.0632798     0.0589006    -0.0104381     0.0399490    -0.0437656
     0.0000627     0.0632798     0.0589006    -0.0104381     0.0399490    -0.0437656
     0.0000863     0.0632798     0.0589006    -0.0104381     0.0399490    -0.0437656

     0.0000000     1.5416889     2.9073063     1.2274740     0.5657877    -4.9569211
     0.0000330     1.5416878     2.9073040     1.2274730     0.5657873    -4.9569171
     0.0000455     1.5416870     2.9073025     1.2274723     0.5657870    -4.9569145
     0.0000627     1.5416857     2.9073000     1.2274712     0.5657866    -4.9569102
     0.0000863     1.5416836     2.9072959     1.2274694     0.5657858    -4.9569030

ion   3
     0.0000000    -0.0632798    -0.0589006    -0.0104381     0.0399490    -0.0437656
     0.0000330    -0.0632798    -0.0589006    -0.0104381     0.0399490    -0.0437656
     0.0000455    -0.0632798    -0.0589006    -0.0104381     0.0399490    -0.0437656
     0.0000627    -0.0632798    -0.0589006    -0.0104381     0.0399490    -0.0437656
     0.0000863    -0.0632798    -0.0589006    -0.0104381     0.0399490    -0.0437656

     0.0000000    -1.5416889    -2.9073063     1.2274740     0.5657877    -4.9569211
     0.0000330    -1.5416878    -2.9073040     1.2274730     0.5657873    -4.9569171
     0.0000455    -1.5416870    -2.9073025     1.2274723     0.5657870    -4.9569145
     0.0000627    -1.5416857    -2.9073000     1.2274712     0.5657866    -4.9569102
     0.0000863    -1.5416836    -2.9072959     1.2274694     0.5657858    -4.9569030

ion   4
     0.0000000    -0.0632798    -0.0589006    -0.0104381     0.0399490    -0.0437656
     0.0000330    -0.0632798    -0.0589006    -0.0104381     0.0399490    -0.0437656
     0.0000455    -0.0632798    -0.0589006    -0.0104381     0.0399490    -0.0437656
     0.0000627    -0.0632798    -0.0589006    -0.0104381     0.0399490    -0.0437656
     0.0000863    -0.0632798    -0.0589006    -0.0104381     0.0399490    -0.0437656

     0.0000000    -1.5416889    -2.9073063     1.2274740     0.5657877    -4.9569211
     0.0000330    -1.5416878    -2.9073040     1.2274730     0.5657873    -4.9569171
     0.0000455    -1.5416870    -2.9073025     1.2274723     0.5657870    -4.9569145
     0.0000627    -1.5416857    -2.9073000     1.2274712     0.5657866    -4.9569102
     0.0000863    -1.5416836    -2.9072959     1.2274694     0.5657858    -4.9569030

ion   5
     0.0000000     0.0422382     0.9009768     0.9315760     0.0167627    -0.0448193
     0.0000657     0.0422382     0.9009768     0.9315760     0.0167627    -0.0448193
     0.0000905     0.0422382     0.9009768     0.9315760     0.0167627    -0.0448193
     0.0001247     0.0422382     0.9009768     0.9315760     0.0167627    -0.0448194
     0.0001717     0.0422383     0.9009768     0.9315761     0.0167627    -0.0448194

     0.0000000    -6.6593021    84.5567672    95.1757532   -17.0844460   -16.2279341
     0.0000657    -6.6456950    84.4931415    95.1174777   -17.0687584   -16.2169342
     0.0000905    -6.6388713    84.4628814    95.0902131   -17.0612219   -16.2118797
     0.0001247    -6.6282574    84.4168056    95.0489848   -17.0496984   -16.2042958
     0.0001717    -6.6118171    84.3469562    94.9869320   -17.0321541   -16.1929747

ion   6
     0.0000000     0.0422382     0.9009768     0.9315760     0.0167627    -0.0448193
     0.0000657     0.0422382     0.9009768     0.9315760     0.0167627    -0.0448193
     0.0000905     0.0422382     0.9009768     0.9315760     0.0167627    -0.0448193
     0.0001247     0.0422382     0.9009768     0.9315760     0.0167627    -0.0448194
     0.0001717     0.0422383     0.9009768     0.9315761     0.0167627    -0.0448194

     0.0000000    -6.6593021    84.5567672    95.1757532   -17.0844460   -16.2279341
     0.0000657    -6.6456950    84.4931415    95.1174777   -17.0687584   -16.2169342
     0.0000905    -6.6388713    84.4628814    95.0902131   -17.0612219   -16.2118797
     0.0001247    -6.6282574    84.4168056    95.0489848   -17.0496984   -16.2042958
     0.0001717    -6.6118171    84.3469562    94.9869320   -17.0321541   -16.1929747

ion   7
     0.0000000    -0.0422382    -0.9009768     0.9315760     0.0167627    -0.0448193
     0.0000657    -0.0422382    -0.9009768     0.9315760     0.0167627    -0.0448193
     0.0000905    -0.0422382    -0.9009768     0.9315760     0.0167627    -0.0448193
     0.0001247    -0.0422382    -0.9009768     0.9315760     0.0167627    -0.0448194
     0.0001717    -0.0422383    -0.9009768     0.9315761     0.0167627    -0.0448194

     0.0000000     6.6593021   -84.5567672    95.1757532   -17.0844460   -16.2279341
     0.0000657     6.6456950   -84.4931415    95.1174777   -17.0687584   -16.2169342
     0.0000905     6.6388713   -84.4628814    95.0902131   -17.0612219   -16.2118797
     0.0001247     6.6282574   -84.4168056    95.0489848   -17.0496984   -16.2042958
     0.0001717     6.6118171   -84.3469562    94.9869320   -17.0321541   -16.1929747

ion   8
     0.0000000    -0.0422382    -0.9009768     0.9315760     0.0167627    -0.0448193
     0.0000657    -0.0422382    -0.9009768     0.9315760     0.0167627    -0.0448193
     0.0000905    -0.0422382    -0.9009768     0.9315760     0.0167627    -0.0448193
     0.0001247    -0.0422382    -0.9009768     0.9315760     0.0167627    -0.0448194
     0.0001717    -0.0422383    -0.9009768     0.9315761     0.0167627    -0.0448194

     0.0000000     6.6593021   -84.5567672    95.1757532   -17.0844460   -16.2279341
     0.0000657     6.6456950   -84.4931415    95.1174777   -17.0687584   -16.2169342
     0.0000905     6.6388713   -84.4628814    95.0902131   -17.0612219   -16.2118797
     0.0001247     6.6282574   -84.4168056    95.0489848   -17.0496984   -16.2042958
     0.0001717     6.6118171   -84.3469562    94.9869320   -17.0321541   -16.1929747

ion   9
     0.0000000    -0.6277069    -0.6651361     0.3137801     1.5916881     1.6717186
     0.0000293    -0.6277069    -0.6651360     0.3137801     1.5916881     1.6717186
     0.0000403    -0.6277069    -0.6651360     0.3137801     1.5916881     1.6717186
     0.0000555    -0.6277069    -0.6651360     0.3137801     1.5916881     1.6717186
     0.0000765    -0.6277069    -0.6651360     0.3137802     1.5916880     1.6717185

     0.0000000    -0.4116975    -2.0452938    -9.6520132     9.7229914     6.5338906
     0.0000293    -0.4116975    -2.0452933    -9.6520098     9.7229886     6.5338889
     0.0000403    -0.4116976    -2.0452930    -9.6520075     9.7229868     6.5338878
     0.0000555    -0.4116977    -2.0452925    -9.6520036     9.7229836     6.5338860
     0.0000765    -0.4116978    -2.0452916    -9.6519971     9.7229783     6.5338828

ion  10
     0.0000000    -0.6277069    -0.6651361     0.3137801     1.5916881     1.6717186
     0.0000293    -0.6277069    -0.6651360     0.3137801     1.5916881     1.6717186
     0.0000403    -0.6277069    -0.6651360     0.3137801     1.5916881     1.6717186
     0.0000555    -0.6277069    -0.6651360     0.3137801     1.5916881     1.6717186
     0.0000765    -0.6277069    -0.6651360     0.3137802     1.5916880     1.6717185

     0.0000000    -0.4116975    -2.0452938    -9.6520132     9.7229914     6.5338906
     0.0000293    -0.4116975    -2.0452933    -9.6520098     9.7229886     6.5338889
     0.0000403    -0.4116976    -2.0452930    -9.6520075     9.7229868     6.5338878
     0.0000555    -0.4116977    -2.0452925    -9.6520036     9.7229836     6.5338860
     0.0000765    -0.4116978    -2.0452916    -9.6519971     9.7229783     6.5338828

ion  11
     0.0000000     0.6277069     0.6651361     0.3137801     1.5916881     1.6717186
     0.0000293     0.6277069     0.6651360     0.3137801     1.5916881     1.6717186
     0.0000403     0.6277069     0.6651360     0.3137801     1.5916881     1.6717186
     0.0000555     0.6277069     0.6651360     0.3137801     1.5916881     1.6717186
     0.0000765     0.6277069     0.6651360     0.3137802     1.5916880     1.6717185

     0.0000000     0.4116975     2.0452938    -9.6520132     9.7229914     6.5338906
     0.0000293     0.4116975     2.0452933    -9.6520098     9.7229886     6.5338889
     0.0000403     0.4116976     2.0452930    -9.6520075     9.7229868     6.5338878
     0.0000555     0.4116977     2.0452925    -9.6520036     9.7229836     6.5338860
     0.0000765     0.4116978     2.0452916    -9.6519971     9.7229783     6.5338828

ion  12
     0.0000000     0.6277069     0.6651361     0.3137801     1.5916881     1.6717186
     0.0000293     0.6277069     0.6651360     0.3137801     1.5916881     1.6717186
     0.0000403     0.6277069     0.6651360     0.3137801     1.5916881     1.6717186
     0.0000555     0.6277069     0.6651360     0.3137801     1.5916881     1.6717186
     0.0000765     0.6277069     0.6651360     0.3137802     1.5916880     1.6717185

     0.0000000     0.4116975     2.0452938    -9.6520132     9.7229914     6.5338906
     0.0000293     0.4116975     2.0452933    -9.6520098     9.7229886     6.5338889
     0.0000403     0.4116976     2.0452930    -9.6520075     9.7229868     6.5338878
     0.0000555     0.4116977     2.0452925    -9.6520036     9.7229836     6.5338860
     0.0000765     0.4116978     2.0452916    -9.6519971     9.7229783     6.5338828

ion  13
     0.0000000    -1.8285854    -1.1135909    -0.4502729    -0.0237020    -0.1672404
     0.0000293    -1.8285854    -1.1135909    -0.4502729    -0.0237020    -0.1672404
     0.0000403    -1.8285854    -1.1135909    -0.4502729    -0.0237020    -0.1672404
     0.0000555    -1.8285854    -1.1135909    -0.4502729    -0.0237020    -0.1672404
     0.0000765    -1.8285854    -1.1135909    -0.4502729    -0.0237020    -0.1672404

     0.0000000     4.3821548    -0.2669269     5.0157283    -2.4557375     0.5330530
     0.0000293     4.3821526    -0.2669271     5.0157264    -2.4557367     0.5330528
     0.0000403     4.3821512    -0.2669273     5.0157252    -2.4557361     0.5330526
     0.0000555     4.3821488    -0.2669277     5.0157230    -2.4557352     0.5330523
     0.0000765     4.3821447    -0.2669282     5.0157195    -2.4557336     0.5330519

ion  14
     0.0000000    -1.8285854    -1.1135909    -0.4502729    -0.0237020    -0.1672404
     0.0000293    -1.8285854    -1.1135909    -0.4502729    -0.0237020    -0.1672404
     0.0000403    -1.8285854    -1.1135909    -0.4502729    -0.0237020    -0.1672404
     0.0000555    -1.8285854    -1.1135909    -0.4502729    -0.0237020    -0.1672404
     0.0000765    -1.8285854    -1.1135909    -0.4502729    -0.0237020    -0.1672404

     0.0000000     4.3821548    -0.2669269     5.0157283    -2.4557375     0.5330530
     0.0000293     4.3821526    -0.2669271     5.0157264    -2.4557367     0.5330528
     0.0000403     4.3821512    -0.2669273     5.0157252    -2.4557361     0.5330526
     0.0000555     4.3821488    -0.2669277     5.0157230    -2.4557352     0.5330523
     0.0000765     4.3821447    -0.2669282     5.0157195    -2.4557336     0.5330519

ion  15
     0.0000000     1.8285854     1.1135909    -0.4502729    -0.0237020    -0.1672404
     0.0000293     1.8285854     1.1135909    -0.4502729    -0.0237020    -0.1672404
     0.0000403     1.8285854     1.1135909    -0.4502729    -0.0237020    -0.1672404
     0.0000555     1.8285854     1.1135909    -0.4502729    -0.0237020    -0.1672404
     0.0000765     1.8285854     1.1135909    -0.4502729    -0.0237020    -0.1672404

     0.0000000    -4.3821548     0.2669269     5.0157283    -2.4557375     0.5330530
     0.0000293    -4.3821526     0.2669271     5.0157264    -2.4557367     0.5330528
     0.0000403    -4.3821512     0.2669273     5.0157252    -2.4557361     0.5330526
     0.0000555    -4.3821488     0.2669277     5.0157230    -2.4557352     0.5330523
     0.0000765    -4.3821447     0.2669282     5.0157195    -2.4557336     0.5330519

ion  16
     0.0000000     1.8285854     1.1135909    -0.4502729    -0.0237020    -0.1672404
     0.0000293     1.8285854     1.1135909    -0.4502729    -0.0237020    -0.1672404
     0.0000403     1.8285854     1.1135909    -0.4502729    -0.0237020    -0.1672404
     0.0000555     1.8285854     1.1135909    -0.4502729    -0.0237020    -0.1672404
     0.0000765     1.8285854     1.1135909    -0.4502729    -0.0237020    -0.1672404

     0.0000000    -4.3821548     0.2669269     5.0157283    -2.4557375     0.5330530
     0.0000293    -4.3821526     0.2669271     5.0157264    -2.4557367     0.5330528
     0.0000403    -4.3821512     0.2669273     5.0157252    -2.4557361     0.5330526
     0.0000555    -4.3821488     0.2669277     5.0157230    -2.4557352     0.5330523
     0.0000765    -4.3821447     0.2669282     5.0157195    -2.4557336     0.5330519

ion  17
     0.0000000    -9.3720513     0.8270162     6.8739066    -2.2923508    -3.7420537
     0.0000310    -9.3720512     0.8270162     6.8739065    -2.2923508    -3.7420537
     0.0000427    -9.3720511     0.8270162     6.8739064    -2.2923508    -3.7420536
     0.0000588    -9.3720509     0.8270162     6.8739063    -2.2923507    -3.7420535
     0.0000810    -9.3720506     0.8270162     6.8739061    -2.2923507    -3.7420534

     0.0000000   -34.2154631     3.4991892    25.2552852    -8.1483150   -13.9578076
     0.0000310   -34.2154496     3.4991877    25.2552752    -8.1483118   -13.9578020
     0.0000427   -34.2154407     3.4991868    25.2552686    -8.1483097   -13.9577984
     0.0000588   -34.2154256     3.4991851    25.2552574    -8.1483061   -13.9577921
     0.0000810   -34.2154003     3.4991824    25.2552387    -8.1483002   -13.9577817

ion  18
     0.0000000    -9.3720513     0.8270162     6.8739066    -2.2923508    -3.7420537
     0.0000310    -9.3720512     0.8270162     6.8739065    -2.2923508    -3.7420537
     0.0000427    -9.3720511     0.8270162     6.8739064    -2.2923508    -3.7420536
     0.0000588    -9.3720509     0.8270162     6.8739063    -2.2923507    -3.7420535
     0.0000810    -9.3720506     0.8270162     6.8739061    -2.2923507    -3.7420534

     0.0000000   -34.2154631     3.4991892    25.2552852    -8.1483150   -13.9578076
     0.0000310   -34.2154496     3.4991877    25.2552752    -8.1483118   -13.9578020
     0.0000427   -34.2154407     3.4991868    25.2552686    -8.1483097   -13.9577984
     0.0000588   -34.2154256     3.4991851    25.2552574    -8.1483061   -13.9577921
     0.0000810   -34.2154003     3.4991824    25.2552387    -8.1483002   -13.9577817

ion  19
     0.0000000     9.3720513    -0.8270162     6.8739066    -2.2923508    -3.7420537
     0.0000310     9.3720512    -0.8270162     6.8739065    -2.2923508    -3.7420537
     0.0000427     9.3720511    -0.8270162     6.8739064    -2.2923508    -3.7420536
     0.0000588     9.3720509    -0.8270162     6.8739063    -2.2923507    -3.7420535
     0.0000810     9.3720506    -0.8270162     6.8739061    -2.2923507    -3.7420534

     0.0000000    34.2154631    -3.4991892    25.2552852    -8.1483150   -13.9578076
     0.0000310    34.2154496    -3.4991877    25.2552752    -8.1483118   -13.9578020
     0.0000427    34.2154407    -3.4991868    25.2552686    -8.1483097   -13.9577984
     0.0000588    34.2154256    -3.4991851    25.2552574    -8.1483061   -13.9577921
     0.0000810    34.2154003    -3.4991824    25.2552387    -8.1483002   -13.9577817

ion  20
     0.0000000     9.3720513    -0.8270162     6.8739066    -2.2923508    -3.7420537
     0.0000310     9.3720512    -0.8270162     6.8739065    -2.2923508    -3.7420537
     0.0000427     9.3720511    -0.8270162     6.8739064    -2.2923508    -3.7420536
     0.0000588     9.3720509    -0.8270162     6.8739063    -2.2923507    -3.7420535
     0.0000810     9.3720506    -0.8270162     6.8739061    -2.2923507    -3.7420534

     0.0000000    34.2154631    -3.4991892    25.2552852    -8.1483150   -13.9578076
     0.0000310    34.2154496    -3.4991877    25.2552752    -8.1483118   -13.9578020
     0.0000427    34.2154407    -3.4991868    25.2552686    -8.1483097   -13.9577984
     0.0000588    34.2154256    -3.4991851    25.2552574    -8.1483061   -13.9577921
     0.0000810    34.2154003    -3.4991824    25.2552387    -8.1483002   -13.9577817

ion  21
     0.0000000     7.1233131     5.7430588     7.4931084    -3.1158983     2.1957645
     0.0000310     7.1233130     5.7430588     7.4931083    -3.1158983     2.1957645
     0.0000427     7.1233130     5.7430587     7.4931082    -3.1158983     2.1957644
     0.0000588     7.1233128     5.7430586     7.4931081    -3.1158982     2.1957644
     0.0000810     7.1233126     5.7430584     7.4931078    -3.1158981     2.1957643

     0.0000000    27.6256149    21.2362733    26.4147963   -11.4373047     8.1184510
     0.0000310    27.6256038    21.2362649    26.4147860   -11.4373002     8.1184478
     0.0000427    27.6255964    21.2362593    26.4147792   -11.4372972     8.1184456
     0.0000588    27.6255839    21.2362499    26.4147677   -11.4372921     8.1184420
     0.0000810    27.6255630    21.2362341    26.4147484   -11.4372836     8.1184360

ion  22
     0.0000000     7.1233131     5.7430588     7.4931084    -3.1158983     2.1957645
     0.0000310     7.1233130     5.7430588     7.4931083    -3.1158983     2.1957645
     0.0000427     7.1233130     5.7430587     7.4931082    -3.1158983     2.1957644
     0.0000588     7.1233128     5.7430586     7.4931081    -3.1158982     2.1957644
     0.0000810     7.1233126     5.7430584     7.4931078    -3.1158981     2.1957643

     0.0000000    27.6256149    21.2362733    26.4147963   -11.4373047     8.1184510
     0.0000310    27.6256038    21.2362649    26.4147860   -11.4373002     8.1184478
     0.0000427    27.6255964    21.2362593    26.4147792   -11.4372972     8.1184456
     0.0000588    27.6255839    21.2362499    26.4147677   -11.4372921     8.1184420
     0.0000810    27.6255630    21.2362341    26.4147484   -11.4372836     8.1184360

ion  23
     0.0000000    -7.1233131    -5.7430588     7.4931084    -3.1158983     2.1957645
     0.0000310    -7.1233130    -5.7430588     7.4931083    -3.1158983     2.1957645
     0.0000427    -7.1233130    -5.7430587     7.4931082    -3.1158983     2.1957644
     0.0000588    -7.1233128    -5.7430586     7.4931081    -3.1158982     2.1957644
     0.0000810    -7.1233126    -5.7430584     7.4931078    -3.1158981     2.1957643

     0.0000000   -27.6256149   -21.2362733    26.4147963   -11.4373047     8.1184510
     0.0000310   -27.6256038   -21.2362649    26.4147860   -11.4373002     8.1184478
     0.0000427   -27.6255964   -21.2362593    26.4147792   -11.4372972     8.1184456
     0.0000588   -27.6255839   -21.2362499    26.4147677   -11.4372921     8.1184420
     0.0000810   -27.6255630   -21.2362341    26.4147484   -11.4372836     8.1184360

ion  24
     0.0000000    -7.1233131    -5.7430588     7.4931084    -3.1158983     2.1957645
     0.0000310    -7.1233130    -5.7430588     7.4931083    -3.1158983     2.1957645
     0.0000427    -7.1233130    -5.7430587     7.4931082    -3.1158983     2.1957644
     0.0000588    -7.1233128    -5.7430586     7.4931081    -3.1158982     2.1957644
     0.0000810    -7.1233126    -5.7430584     7.4931078    -3.1158981     2.1957643

     0.0000000   -27.6256149   -21.2362733    26.4147963   -11.4373047     8.1184510
     0.0000310   -27.6256038   -21.2362649    26.4147860   -11.4373002     8.1184478
     0.0000427   -27.6255964   -21.2362593    26.4147792   -11.4372972     8.1184456
     0.0000588   -27.6255839   -21.2362499    26.4147677   -11.4372921     8.1184420
     0.0000810   -27.6255630   -21.2362341    26.4147484   -11.4372836     8.1184360

   1 F= -.19648435E+03 E0= -.19648435E+03  d E =-.984034-224
BDIR= 1  IDIR= 2  IQ= -1
DAV:   1    -0.572759522816E+04   -0.57276E+04   -0.16740E+00  5676   0.554E+00
DAV:   2    -0.572761104544E+04   -0.15817E-01   -0.15817E-01  7992   0.178E+00
DAV:   3    -0.572761156863E+04   -0.52319E-03   -0.52318E-03  8912   0.299E-01
DAV:   4    -0.572761158300E+04   -0.14370E-04   -0.14370E-04  8608   0.492E-02
DAV:   5    -0.572761158361E+04   -0.61436E-06   -0.61420E-06  9088   0.104E-02
DAV:   6    -0.572761158364E+04   -0.27776E-07   -0.27594E-07  6784   0.215E-03
DAV:   7    -0.572761158364E+04   -0.13160E-08   -0.13572E-08  4424   0.556E-04
       N       E                     dE             d eps       ncg     rms
RMM:   1    -0.553941524855E+03   -0.55394E+03   -0.14174E+03  6131   0.353E+02
RMM:   2    -0.664382134795E+03   -0.11044E+03   -0.36516E+02 10028   0.455E+01
RMM:   3    -0.675437067357E+03   -0.11055E+02   -0.53184E+01 10992   0.126E+01
RMM:   4    -0.676995512272E+03   -0.15584E+01   -0.41227E+00 11087   0.352E+00
RMM:   5    -0.677160322750E+03   -0.16481E+00   -0.50347E-01 11245   0.114E+00
RMM:   6    -0.677181392412E+03   -0.21070E-01   -0.81963E-02 11271   0.391E-01
RMM:   7    -0.677184643858E+03   -0.32514E-02   -0.12679E-02 11422   0.137E-01
RMM:   8    -0.677185192167E+03   -0.54831E-03   -0.24844E-03 11263   0.491E-02
RMM:   9    -0.677185290470E+03   -0.98303E-04   -0.35586E-04 10976   0.182E-02
RMM:  10    -0.677185305864E+03   -0.15393E-04   -0.68871E-05  9731   0.697E-03
RMM:  11    -0.677185308824E+03   -0.29608E-05   -0.11596E-05  7906   0.269E-03
RMM:  12    -0.677185309307E+03   -0.48231E-06   -0.20901E-06  6279   0.114E-03
RMM:  13    -0.677185309407E+03   -0.99917E-07   -0.42268E-07  5049   0.538E-04
RMM:  14    -0.677185309423E+03   -0.16703E-07   -0.72370E-08  3969   0.320E-04
RMM:  15    -0.677185309427E+03   -0.36113E-08   -0.15227E-08  3182   0.245E-04
BDIR= 1  IDIR= 2  IQ=  0
DAV:   1    -0.572767708118E+04   -0.57277E+04   -0.67942E-09  3552   0.619E-04
DAV:   2    -0.572767708118E+04   -0.12733E-09   -0.29429E-09  3552   0.350E-04
       N       E                     dE             d eps       ncg     rms
RMM:   1    -0.553930087522E+03   -0.55393E+03   -0.14169E+03  6131   0.353E+02
RMM:   2    -0.664390176537E+03   -0.11046E+03   -0.36513E+02 10025   0.455E+01
RMM:   3    -0.675453965475E+03   -0.11064E+02   -0.53267E+01 10993   0.126E+01
RMM:   4    -0.677012083087E+03   -0.15581E+01   -0.41324E+00 11086   0.352E+00
RMM:   5    -0.677177115030E+03   -0.16503E+00   -0.50147E-01 11238   0.114E+00
RMM:   6    -0.677198264863E+03   -0.21150E-01   -0.82597E-02 11284   0.392E-01
RMM:   7    -0.677201535546E+03   -0.32707E-02   -0.12766E-02 11407   0.137E-01
RMM:   8    -0.677202085989E+03   -0.55044E-03   -0.24781E-03 11281   0.491E-02
RMM:   9    -0.677202183725E+03   -0.97736E-04   -0.35722E-04 10952   0.181E-02
RMM:  10    -0.677202199113E+03   -0.15388E-04   -0.68081E-05  9772   0.697E-03
RMM:  11    -0.677202202115E+03   -0.30021E-05   -0.12129E-05  7867   0.271E-03
RMM:  12    -0.677202202620E+03   -0.50579E-06   -0.21995E-06  6289   0.115E-03
RMM:  13    -0.677202202725E+03   -0.10458E-06   -0.43659E-07  5046   0.542E-04
RMM:  14    -0.677202202742E+03   -0.17305E-07   -0.74509E-08  3955   0.322E-04
RMM:  15    -0.677202202746E+03   -0.37530E-08   -0.15857E-08  3177   0.247E-04
BDIR= 1  IDIR= 2  IQ=  1
DAV:   1    -0.572772608810E+04   -0.57277E+04   -0.16737E+00  5679   0.554E+00
DAV:   2    -0.572774192973E+04   -0.15842E-01   -0.15842E-01  8000   0.178E+00
DAV:   3    -0.572774243743E+04   -0.50771E-03   -0.50770E-03  8888   0.298E-01
DAV:   4    -0.572774245154E+04   -0.14108E-04   -0.14108E-04  8608   0.491E-02
DAV:   5    -0.572774245215E+04   -0.60497E-06   -0.60483E-06  9048   0.104E-02
DAV:   6    -0.572774245217E+04   -0.26282E-07   -0.26632E-07  6696   0.215E-03
DAV:   7    -0.572774245217E+04   -0.14516E-08   -0.13299E-08  4416   0.570E-04
       N       E                     dE             d eps       ncg     rms
RMM:   1    -0.553948885927E+03   -0.55395E+03   -0.14172E+03  6131   0.353E+02
RMM:   2    -0.664394923374E+03   -0.11045E+03   -0.36514E+02 10021   0.455E+01
RMM:   3    -0.675453694404E+03   -0.11059E+02   -0.53216E+01 10994   0.126E+01
RMM:   4    -0.677011625772E+03   -0.15579E+01   -0.41221E+00 11092   0.352E+00
RMM:   5    -0.677176607433E+03   -0.16498E+00   -0.50341E-01 11224   0.114E+00
RMM:   6    -0.677197733943E+03   -0.21127E-01   -0.82463E-02 11266   0.392E-01
RMM:   7    -0.677201019693E+03   -0.32858E-02   -0.12863E-02 11407   0.138E-01
RMM:   8    -0.677201574993E+03   -0.55530E-03   -0.25119E-03 11258   0.493E-02
RMM:   9    -0.677201675482E+03   -0.10049E-03   -0.37540E-04 10980   0.183E-02
RMM:  10    -0.677201691718E+03   -0.16235E-04   -0.73395E-05  9729   0.704E-03
RMM:  11    -0.677201694907E+03   -0.31889E-05   -0.12343E-05  7901   0.273E-03
RMM:  12    -0.677201695421E+03   -0.51430E-06   -0.22226E-06  6272   0.116E-03
RMM:  13    -0.677201695528E+03   -0.10761E-06   -0.45671E-07  5064   0.548E-04
RMM:  14    -0.677201695546E+03   -0.17953E-07   -0.77827E-08  3963   0.325E-04
RMM:  15    -0.677201695550E+03   -0.38619E-08   -0.16376E-08  3186   0.247E-04
BDIR= 1  IDIR= 3  IQ= -1
DAV:   1    -0.572764479736E+04   -0.57276E+04   -0.17122E+00  5668   0.555E+00
DAV:   2    -0.572766136954E+04   -0.16572E-01   -0.16572E-01  7992   0.179E+00
DAV:   3    -0.572766205559E+04   -0.68605E-03   -0.68605E-03  8656   0.319E-01
DAV:   4    -0.572766207546E+04   -0.19874E-04   -0.19874E-04  8848   0.548E-02
DAV:   5    -0.572766207612E+04   -0.65592E-06   -0.65602E-06  8728   0.108E-02
DAV:   6    -0.572766207615E+04   -0.33036E-07   -0.32966E-07  6992   0.225E-03
DAV:   7    -0.572766207615E+04   -0.11669E-08   -0.14951E-08  4600   0.580E-04
       N       E                     dE             d eps       ncg     rms
RMM:   1    -0.574976093195E+03   -0.57498E+03   -0.13828E+03  6434   0.323E+02
RMM:   2    -0.667500247182E+03   -0.92524E+02   -0.30072E+02 10335   0.424E+01
RMM:   3    -0.675801567160E+03   -0.83013E+01   -0.34111E+01 11009   0.112E+01
RMM:   4    -0.676844881320E+03   -0.10433E+01   -0.28956E+00 11158   0.316E+00
RMM:   5    -0.676940223416E+03   -0.95342E-01   -0.26832E-01 11629   0.101E+00
RMM:   6    -0.676951070984E+03   -0.10848E-01   -0.36388E-02 11205   0.302E-01
RMM:   7    -0.676952345143E+03   -0.12742E-02   -0.42733E-03 11537   0.104E-01
RMM:   8    -0.676952528777E+03   -0.18363E-03   -0.72225E-04 11375   0.341E-02
RMM:   9    -0.676952557533E+03   -0.28755E-04   -0.10720E-04 10967   0.121E-02
RMM:  10    -0.676952561728E+03   -0.41952E-05   -0.17021E-05  9439   0.435E-03
RMM:  11    -0.676952562453E+03   -0.72497E-06   -0.29554E-06  7587   0.169E-03
RMM:  12    -0.676952562564E+03   -0.11105E-06   -0.46721E-07  6187   0.724E-04
RMM:  13    -0.676952562585E+03   -0.21157E-07   -0.87853E-08  4792   0.370E-04
RMM:  14    -0.676952562588E+03   -0.28422E-08   -0.10901E-08  3473   0.251E-04
BDIR= 1  IDIR= 3  IQ=  0
DAV:   1    -0.572767708118E+04   -0.57277E+04   -0.67975E-09  3552   0.619E-04
DAV:   2    -0.572767708118E+04   -0.45566E-09   -0.29438E-09  3552   0.350E-04
       N       E                     dE             d eps       ncg     rms
RMM:   1    -0.575150044581E+03   -0.57515E+03   -0.13854E+03  6439   0.323E+02
RMM:   2    -0.667556575714E+03   -0.92407E+02   -0.30003E+02 10333   0.422E+01
RMM:   3    -0.675802335325E+03   -0.82458E+01   -0.33815E+01 11020   0.112E+01
RMM:   4    -0.676835672184E+03   -0.10333E+01   -0.28558E+00 11161   0.313E+00
RMM:   5    -0.676929281219E+03   -0.93609E-01   -0.26171E-01 11627   0.101E+00
RMM:   6    -0.676939986200E+03   -0.10705E-01   -0.35631E-02 11179   0.300E-01
RMM:   7    -0.676941231818E+03   -0.12456E-02   -0.41877E-03 11565   0.104E-01
RMM:   8    -0.676941406755E+03   -0.17494E-03   -0.67856E-04 11408   0.336E-02
RMM:   9    -0.676941433820E+03   -0.27066E-04   -0.10167E-04 10970   0.119E-02
RMM:  10    -0.676941437924E+03   -0.41038E-05   -0.16784E-05  9367   0.431E-03
RMM:  11    -0.676941438644E+03   -0.72015E-06   -0.28988E-06  7624   0.166E-03
RMM:  12    -0.676941438750E+03   -0.10554E-06   -0.44126E-07  6137   0.711E-04
RMM:  13    -0.676941438771E+03   -0.20688E-07   -0.85393E-08  4750   0.366E-04
RMM:  14    -0.676941438773E+03   -0.27767E-08   -0.10720E-08  3456   0.250E-04
BDIR= 1  IDIR= 3  IQ=  1
DAV:   1    -0.572767460716E+04   -0.57277E+04   -0.17110E+00  5659   0.555E+00
DAV:   2    -0.572769129107E+04   -0.16684E-01   -0.16684E-01  8016   0.180E+00
DAV:   3    -0.572769193450E+04   -0.64343E-03   -0.64343E-03  8592   0.314E-01
DAV:   4    -0.572769195351E+04   -0.19006E-04   -0.19006E-04  8776   0.547E-02
DAV:   5    -0.572769195417E+04   -0.66271E-06   -0.66255E-06  8776   0.111E-02
DAV:   6    -0.572769195420E+04   -0.31235E-07   -0.31468E-07  6944   0.222E-03
DAV:   7    -0.572769195420E+04   -0.17071E-08   -0.15203E-08  4616   0.587E-04
       N       E                     dE             d eps       ncg     rms
RMM:   1    -0.575171498176E+03   -0.57517E+03   -0.13871E+03  6442   0.323E+02
RMM:   2    -0.667519559023E+03   -0.92348E+02   -0.29977E+02 10330   0.422E+01
RMM:   3    -0.675768583833E+03   -0.82490E+01   -0.33874E+01 11009   0.112E+01
RMM:   4    -0.676805880103E+03   -0.10373E+01   -0.28639E+00 11163   0.315E+00
RMM:   5    -0.676900574391E+03   -0.94694E-01   -0.26364E-01 11608   0.101E+00
RMM:   6    -0.676911268257E+03   -0.10694E-01   -0.35389E-02 11193   0.301E-01
RMM:   7    -0.676912515380E+03   -0.12471E-02   -0.42091E-03 11524   0.103E-01
RMM:   8    -0.676912690712E+03   -0.17533E-03   -0.66840E-04 11413   0.336E-02
RMM:   9    -0.676912717927E+03   -0.27214E-04   -0.10433E-04 10994   0.119E-02
RMM:  10    -0.676912722073E+03   -0.41465E-05   -0.16832E-05  9384   0.431E-03
RMM:  11    -0.676912722798E+03   -0.72478E-06   -0.29603E-06  7590   0.167E-03
RMM:  12    -0.676912722908E+03   -0.11002E-06   -0.45338E-07  6135   0.716E-04
RMM:  13    -0.676912722929E+03   -0.21210E-07   -0.89981E-08  4758   0.369E-04
RMM:  14    -0.676912722932E+03   -0.29272E-08   -0.11109E-08  3459   0.252E-04
       N       E                     dE             d eps       ncg     rms
RLQ:   1    -0.130807792196E+02   -0.13081E+02   -0.15060E+03  5520   0.359E+02
RLQ:   2    -0.171795202823E+02   -0.40987E+01   -0.13556E+01 10887   0.597E+00
RLQ:   3    -0.174942244163E+02   -0.31470E+00   -0.88794E-01 10353   0.149E+00
RLQ:   4    -0.175293613121E+02   -0.35137E-01   -0.11968E-01 10875   0.503E-01
RLQ:   5    -0.175343020452E+02   -0.49407E-02   -0.12830E-02  9961   0.156E-01
RLQ:   6    -0.175348112110E+02   -0.50917E-03   -0.17711E-03 10407   0.552E-02
RLQ:   7    -0.175348804767E+02   -0.69266E-04   -0.22232E-04 10229   0.172E-02
RLQ:   8    -0.175348879230E+02   -0.74463E-05   -0.21403E-05 10190   0.571E-03
RLQ:   9    -0.175348888204E+02   -0.89738E-06   -0.35975E-06  9221   0.193E-03
RLQ:  10    -0.175348889277E+02   -0.10739E-06   -0.31995E-07  7054   0.643E-04
RLQ:  11    -0.175348889421E+02   -0.14338E-07   -0.64087E-08  4183   0.302E-04
RLQ:  12    -0.175348889438E+02   -0.17538E-08   -0.48332E-09  3021   0.222E-04
BDIR= 2  IDIR= 1  IQ= -1
DAV:   1    -0.572766418236E+04   -0.57277E+04   -0.16827E+00  5681   0.554E+00
DAV:   2    -0.572767968446E+04   -0.15502E-01   -0.15502E-01  7984   0.178E+00
DAV:   3    -0.572768022218E+04   -0.53772E-03   -0.53771E-03  8768   0.296E-01
DAV:   4    -0.572768023548E+04   -0.13304E-04   -0.13304E-04  8744   0.494E-02
DAV:   5    -0.572768023599E+04   -0.50863E-06   -0.50859E-06  9032   0.979E-03
DAV:   6    -0.572768023601E+04   -0.21229E-07   -0.21329E-07  6696   0.205E-03
DAV:   7    -0.572768023601E+04   -0.10969E-08   -0.97055E-09  4368   0.544E-04
       N       E                     dE             d eps       ncg     rms
RMM:   1    -0.553830084321E+03   -0.55383E+03   -0.14167E+03  6130   0.353E+02
RMM:   2    -0.664322279465E+03   -0.11049E+03   -0.36521E+02 10026   0.455E+01
RMM:   3    -0.675372073051E+03   -0.11050E+02   -0.53097E+01 10991   0.126E+01
RMM:   4    -0.676936008248E+03   -0.15639E+01   -0.41572E+00 11094   0.353E+00
RMM:   5    -0.677101614768E+03   -0.16561E+00   -0.50324E-01 11221   0.114E+00
RMM:   6    -0.677122783312E+03   -0.21169E-01   -0.82275E-02 11264   0.393E-01
RMM:   7    -0.677126056188E+03   -0.32729E-02   -0.12799E-02 11411   0.138E-01
RMM:   8    -0.677126608863E+03   -0.55267E-03   -0.24807E-03 11250   0.494E-02
RMM:   9    -0.677126708999E+03   -0.10014E-03   -0.37732E-04 11003   0.184E-02
RMM:  10    -0.677126724961E+03   -0.15962E-04   -0.69894E-05  9710   0.701E-03
RMM:  11    -0.677126727998E+03   -0.30366E-05   -0.11614E-05  7908   0.271E-03
RMM:  12    -0.677126728490E+03   -0.49223E-06   -0.21408E-06  6326   0.116E-03
RMM:  13    -0.677126728593E+03   -0.10314E-06   -0.42397E-07  5073   0.542E-04
RMM:  14    -0.677126728610E+03   -0.16774E-07   -0.69494E-08  3958   0.320E-04
RMM:  15    -0.677126728614E+03   -0.36656E-08   -0.15323E-08  3186   0.246E-04
BDIR= 2  IDIR= 1  IQ=  0
DAV:   1    -0.572767708118E+04   -0.57277E+04   -0.67939E-09  3552   0.619E-04
DAV:   2    -0.572767708118E+04   -0.13642E-09   -0.29187E-09  3552   0.350E-04
       N       E                     dE             d eps       ncg     rms
RMM:   1    -0.553930087522E+03   -0.55393E+03   -0.14169E+03  6131   0.353E+02
RMM:   2    -0.664390176537E+03   -0.11046E+03   -0.36513E+02 10025   0.455E+01
RMM:   3    -0.675453965475E+03   -0.11064E+02   -0.53267E+01 10993   0.126E+01
RMM:   4    -0.677012083087E+03   -0.15581E+01   -0.41324E+00 11086   0.352E+00
RMM:   5    -0.677177115030E+03   -0.16503E+00   -0.50147E-01 11238   0.114E+00
RMM:   6    -0.677198264863E+03   -0.21150E-01   -0.82597E-02 11284   0.392E-01
RMM:   7    -0.677201535546E+03   -0.32707E-02   -0.12766E-02 11407   0.137E-01
RMM:   8    -0.677202085989E+03   -0.55044E-03   -0.24781E-03 11281   0.491E-02
RMM:   9    -0.677202183725E+03   -0.97736E-04   -0.35722E-04 10952   0.181E-02
RMM:  10    -0.677202199113E+03   -0.15388E-04   -0.68081E-05  9772   0.697E-03
RMM:  11    -0.677202202115E+03   -0.30021E-05   -0.12129E-05  7867   0.271E-03
RMM:  12    -0.677202202620E+03   -0.50579E-06   -0.21995E-06  6289   0.115E-03
RMM:  13    -0.677202202725E+03   -0.10458E-06   -0.43659E-07  5046   0.542E-04
RMM:  14    -0.677202202742E+03   -0.17305E-07   -0.74509E-08  3955   0.322E-04
RMM:  15    -0.677202202746E+03   -0.37528E-08   -0.15857E-08  3177   0.247E-04
BDIR= 2  IDIR= 1  IQ=  1
DAV:   1    -0.572765773650E+04   -0.57277E+04   -0.16826E+00  5676   0.554E+00
DAV:   2    -0.572767323665E+04   -0.15500E-01   -0.15500E-01  7976   0.178E+00
DAV:   3    -0.572767378764E+04   -0.55099E-03   -0.55099E-03  8736   0.298E-01
DAV:   4    -0.572767380166E+04   -0.14026E-04   -0.14025E-04  8808   0.498E-02
DAV:   5    -0.572767380217E+04   -0.50828E-06   -0.50851E-06  9024   0.975E-03
DAV:   6    -0.572767380219E+04   -0.21995E-07   -0.21748E-07  6768   0.204E-03
DAV:   7    -0.572767380219E+04   -0.75670E-09   -0.96530E-09  4384   0.527E-04
       N       E                     dE             d eps       ncg     rms
RMM:   1    -0.554095702362E+03   -0.55410E+03   -0.14181E+03  6132   0.353E+02
RMM:   2    -0.664464843984E+03   -0.11037E+03   -0.36506E+02 10023   0.455E+01
RMM:   3    -0.675516850355E+03   -0.11052E+02   -0.53183E+01 10994   0.126E+01
RMM:   4    -0.677070238143E+03   -0.15534E+01   -0.41019E+00 11078   0.351E+00
RMM:   5    -0.677235103210E+03   -0.16487E+00   -0.50376E-01 11234   0.114E+00
RMM:   6    -0.677256270940E+03   -0.21168E-01   -0.82423E-02 11281   0.392E-01
RMM:   7    -0.677259559169E+03   -0.32882E-02   -0.12869E-02 11416   0.137E-01
RMM:   8    -0.677260115749E+03   -0.55658E-03   -0.25235E-03 11276   0.491E-02
RMM:   9    -0.677260213648E+03   -0.97899E-04   -0.34805E-04 10955   0.180E-02
RMM:  10    -0.677260228738E+03   -0.15090E-04   -0.66924E-05  9732   0.693E-03
RMM:  11    -0.677260231651E+03   -0.29134E-05   -0.12051E-05  7874   0.270E-03
RMM:  12    -0.677260232153E+03   -0.50183E-06   -0.21553E-06  6276   0.115E-03
RMM:  13    -0.677260232257E+03   -0.10387E-06   -0.44774E-07  5040   0.543E-04
RMM:  14    -0.677260232275E+03   -0.17776E-07   -0.75869E-08  3950   0.322E-04
RMM:  15    -0.677260232279E+03   -0.38589E-08   -0.16537E-08  3171   0.247E-04
BDIR= 2  IDIR= 3  IQ= -1
DAV:   1    -0.572764479736E+04   -0.57276E+04   -0.17122E+00  5668   0.555E+00
DAV:   2    -0.572766136954E+04   -0.16572E-01   -0.16572E-01  7992   0.179E+00
DAV:   3    -0.572766205559E+04   -0.68605E-03   -0.68605E-03  8656   0.319E-01
DAV:   4    -0.572766207546E+04   -0.19874E-04   -0.19874E-04  8848   0.548E-02
DAV:   5    -0.572766207612E+04   -0.65588E-06   -0.65602E-06  8728   0.108E-02
DAV:   6    -0.572766207615E+04   -0.33147E-07   -0.32965E-07  6992   0.225E-03
DAV:   7    -0.572766207615E+04   -0.14425E-08   -0.14953E-08  4600   0.580E-04
       N       E                     dE             d eps       ncg     rms
RMM:   1    -0.576977891392E+03   -0.57698E+03   -0.13315E+03  6539   0.316E+02
RMM:   2    -0.667913080146E+03   -0.90935E+02   -0.29212E+02 10301   0.414E+01
RMM:   3    -0.676008703392E+03   -0.80956E+01   -0.33631E+01 11005   0.111E+01
RMM:   4    -0.677004160377E+03   -0.99546E+00   -0.26686E+00 11185   0.311E+00
RMM:   5    -0.677089581181E+03   -0.85421E-01   -0.25094E-01 11573   0.101E+00
RMM:   6    -0.677099522174E+03   -0.99410E-02   -0.32060E-02 11159   0.293E-01
RMM:   7    -0.677100648038E+03   -0.11259E-02   -0.36752E-03 11454   0.101E-01
RMM:   8    -0.677100806042E+03   -0.15800E-03   -0.59349E-04 11306   0.326E-02
RMM:   9    -0.677100829909E+03   -0.23867E-04   -0.85986E-05 10996   0.114E-02
RMM:  10    -0.677100833429E+03   -0.35200E-05   -0.13917E-05  9573   0.401E-03
RMM:  11    -0.677100834063E+03   -0.63432E-06   -0.24420E-06  7653   0.156E-03
RMM:  12    -0.677100834167E+03   -0.10375E-06   -0.42918E-07  5891   0.672E-04
RMM:  13    -0.677100834186E+03   -0.19260E-07   -0.74956E-08  4505   0.354E-04
RMM:  14    -0.677100834189E+03   -0.28823E-08   -0.10863E-08  3431   0.249E-04
BDIR= 2  IDIR= 3  IQ=  0
DAV:   1    -0.572767708118E+04   -0.57277E+04   -0.67856E-09  3552   0.619E-04
DAV:   2    -0.572767708118E+04   -0.32560E-09   -0.29408E-09  3552   0.350E-04
       N       E                     dE             d eps       ncg     rms
RMM:   1    -0.576975772634E+03   -0.57698E+03   -0.13298E+03  6539   0.316E+02
RMM:   2    -0.667941928224E+03   -0.90966E+02   -0.29208E+02 10300   0.414E+01
RMM:   3    -0.676058929686E+03   -0.81170E+01   -0.33656E+01 11002   0.111E+01
RMM:   4    -0.677054399470E+03   -0.99547E+00   -0.26712E+00 11181   0.311E+00
RMM:   5    -0.677140237629E+03   -0.85838E-01   -0.25262E-01 11584   0.101E+00
RMM:   6    -0.677150177089E+03   -0.99395E-02   -0.31701E-02 11159   0.292E-01
RMM:   7    -0.677151308052E+03   -0.11310E-02   -0.36941E-03 11472   0.100E-01
RMM:   8    -0.677151466086E+03   -0.15803E-03   -0.58671E-04 11310   0.325E-02
RMM:   9    -0.677151490483E+03   -0.24397E-04   -0.88096E-05 10979   0.115E-02
RMM:  10    -0.677151494125E+03   -0.36417E-05   -0.14096E-05  9565   0.403E-03
RMM:  11    -0.677151494780E+03   -0.65536E-06   -0.25212E-06  7647   0.158E-03
RMM:  12    -0.677151494887E+03   -0.10674E-06   -0.43493E-07  5850   0.680E-04
RMM:  13    -0.677151494907E+03   -0.20241E-07   -0.79451E-08  4556   0.360E-04
RMM:  14    -0.677151494910E+03   -0.30039E-08   -0.11271E-08  3469   0.250E-04
BDIR= 2  IDIR= 3  IQ=  1
DAV:   1    -0.572767460716E+04   -0.57277E+04   -0.17110E+00  5659   0.555E+00
DAV:   2    -0.572769129107E+04   -0.16684E-01   -0.16684E-01  8016   0.180E+00
DAV:   3    -0.572769193450E+04   -0.64343E-03   -0.64343E-03  8592   0.314E-01
DAV:   4    -0.572769195351E+04   -0.19007E-04   -0.19006E-04  8776   0.547E-02
DAV:   5    -0.572769195417E+04   -0.66238E-06   -0.66255E-06  8776   0.111E-02
DAV:   6    -0.572769195420E+04   -0.31560E-07   -0.31468E-07  6944   0.222E-03
DAV:   7    -0.572769195420E+04   -0.13715E-08   -0.15200E-08  4616   0.587E-04
       N       E                     dE             d eps       ncg     rms
RMM:   1    -0.576831560258E+03   -0.57683E+03   -0.13271E+03  6537   0.316E+02
RMM:   2    -0.667907251165E+03   -0.91076E+02   -0.29272E+02 10301   0.414E+01
RMM:   3    -0.676080801709E+03   -0.81736E+01   -0.34064E+01 10999   0.112E+01
RMM:   4    -0.677086880614E+03   -0.10061E+01   -0.26852E+00 11181   0.313E+00
RMM:   5    -0.677173268126E+03   -0.86388E-01   -0.25395E-01 11584   0.102E+00
RMM:   6    -0.677183228623E+03   -0.99605E-02   -0.31759E-02 11157   0.294E-01
RMM:   7    -0.677184370398E+03   -0.11418E-02   -0.37678E-03 11497   0.101E-01
RMM:   8    -0.677184530789E+03   -0.16039E-03   -0.59081E-04 11294   0.326E-02
RMM:   9    -0.677184555115E+03   -0.24326E-04   -0.87537E-05 11011   0.115E-02
RMM:  10    -0.677184558779E+03   -0.36636E-05   -0.14275E-05  9584   0.405E-03
RMM:  11    -0.677184559422E+03   -0.64341E-06   -0.24601E-06  7624   0.156E-03
RMM:  12    -0.677184559526E+03   -0.10381E-06   -0.42091E-07  5863   0.671E-04
RMM:  13    -0.677184559545E+03   -0.19231E-07   -0.75315E-08  4526   0.355E-04
RMM:  14    -0.677184559548E+03   -0.28539E-08   -0.10686E-08  3453   0.248E-04
       N       E                     dE             d eps       ncg     rms
RLQ:   1    -0.131045931637E+02   -0.13105E+02   -0.15098E+03  5520   0.358E+02
RLQ:   2    -0.172202656065E+02   -0.41157E+01   -0.13630E+01 10904   0.592E+00
RLQ:   3    -0.175361907906E+02   -0.31593E+00   -0.87590E-01 10315   0.147E+00
RLQ:   4    -0.175696986394E+02   -0.33508E-01   -0.11838E-01 10987   0.494E-01
RLQ:   5    -0.175743678575E+02   -0.46692E-02   -0.11444E-02  9912   0.147E-01
RLQ:   6    -0.175748427656E+02   -0.47491E-03   -0.16420E-03 10352   0.536E-02
RLQ:   7    -0.175749176075E+02   -0.74842E-04   -0.24579E-04 10193   0.171E-02
RLQ:   8    -0.175749253385E+02   -0.77309E-05   -0.21418E-05 10185   0.569E-03
RLQ:   9    -0.175749263145E+02   -0.97607E-06   -0.39112E-06  9303   0.193E-03
RLQ:  10    -0.175749264323E+02   -0.11779E-06   -0.35089E-07  6936   0.649E-04
RLQ:  11    -0.175749264500E+02   -0.17688E-07   -0.79977E-08  4212   0.309E-04
RLQ:  12    -0.175749264524E+02   -0.23603E-08   -0.71810E-09  3124   0.223E-04
BDIR= 3  IDIR= 1  IQ= -1
DAV:   1    -0.572766418236E+04   -0.57277E+04   -0.16827E+00  5681   0.554E+00
DAV:   2    -0.572767968446E+04   -0.15502E-01   -0.15502E-01  7984   0.178E+00
DAV:   3    -0.572768022218E+04   -0.53772E-03   -0.53771E-03  8768   0.296E-01
DAV:   4    -0.572768023548E+04   -0.13304E-04   -0.13304E-04  8744   0.494E-02
DAV:   5    -0.572768023599E+04   -0.50852E-06   -0.50859E-06  9032   0.979E-03
DAV:   6    -0.572768023601E+04   -0.21312E-07   -0.21329E-07  6696   0.205E-03
DAV:   7    -0.572768023601E+04   -0.11323E-08   -0.96931E-09  4368   0.544E-04
       N       E                     dE             d eps       ncg     rms
RMM:   1    -0.575153221808E+03   -0.57515E+03   -0.13858E+03  6440   0.323E+02
RMM:   2    -0.667548187606E+03   -0.92395E+02   -0.30003E+02 10333   0.422E+01
RMM:   3    -0.675786827072E+03   -0.82386E+01   -0.33780E+01 11012   0.112E+01
RMM:   4    -0.676821768753E+03   -0.10349E+01   -0.28688E+00 11156   0.315E+00
RMM:   5    -0.676916563894E+03   -0.94795E-01   -0.26564E-01 11629   0.101E+00
RMM:   6    -0.676927374501E+03   -0.10811E-01   -0.35614E-02 11186   0.301E-01
RMM:   7    -0.676928626520E+03   -0.12520E-02   -0.42365E-03 11559   0.104E-01
RMM:   8    -0.676928803880E+03   -0.17736E-03   -0.68856E-04 11410   0.338E-02
RMM:   9    -0.676928831496E+03   -0.27615E-04   -0.10488E-04 10987   0.120E-02
RMM:  10    -0.676928835733E+03   -0.42370E-05   -0.17172E-05  9389   0.435E-03
RMM:  11    -0.676928836469E+03   -0.73660E-06   -0.29783E-06  7605   0.169E-03
RMM:  12    -0.676928836582E+03   -0.11246E-06   -0.46733E-07  6156   0.726E-04
RMM:  13    -0.676928836603E+03   -0.21867E-07   -0.91153E-08  4779   0.373E-04
RMM:  14    -0.676928836606E+03   -0.29675E-08   -0.11384E-08  3485   0.254E-04
BDIR= 3  IDIR= 1  IQ=  0
DAV:   1    -0.572767708118E+04   -0.57277E+04   -0.67922E-09  3552   0.619E-04
DAV:   2    -0.572767708118E+04   -0.16098E-09   -0.29188E-09  3552   0.350E-04
       N       E                     dE             d eps       ncg     rms
RMM:   1    -0.575150044581E+03   -0.57515E+03   -0.13854E+03  6439   0.323E+02
RMM:   2    -0.667556575714E+03   -0.92407E+02   -0.30003E+02 10333   0.422E+01
RMM:   3    -0.675802335325E+03   -0.82458E+01   -0.33815E+01 11020   0.112E+01
RMM:   4    -0.676835672184E+03   -0.10333E+01   -0.28558E+00 11161   0.313E+00
RMM:   5    -0.676929281219E+03   -0.93609E-01   -0.26171E-01 11627   0.101E+00
RMM:   6    -0.676939986200E+03   -0.10705E-01   -0.35631E-02 11179   0.300E-01
RMM:   7    -0.676941231818E+03   -0.12456E-02   -0.41877E-03 11565   0.104E-01
RMM:   8    -0.676941406755E+03   -0.17494E-03   -0.67856E-04 11408   0.336E-02
RMM:   9    -0.676941433820E+03   -0.27066E-04   -0.10167E-04 10970   0.119E-02
RMM:  10    -0.676941437924E+03   -0.41038E-05   -0.16784E-05  9367   0.431E-03
RMM:  11    -0.676941438644E+03   -0.72015E-06   -0.28988E-06  7624   0.166E-03
RMM:  12    -0.676941438750E+03   -0.10554E-06   -0.44126E-07  6137   0.711E-04
RMM:  13    -0.676941438771E+03   -0.20688E-07   -0.85393E-08  4750   0.366E-04
RMM:  14    -0.676941438773E+03   -0.27771E-08   -0.10719E-08  3456   0.250E-04
BDIR= 3  IDIR= 1  IQ=  1
DAV:   1    -0.572765773650E+04   -0.57277E+04   -0.16826E+00  5676   0.554E+00
DAV:   2    -0.572767323665E+04   -0.15500E-01   -0.15500E-01  7976   0.178E+00
DAV:   3    -0.572767378764E+04   -0.55099E-03   -0.55099E-03  8736   0.298E-01
DAV:   4    -0.572767380166E+04   -0.14025E-04   -0.14025E-04  8808   0.498E-02
DAV:   5    -0.572767380217E+04   -0.50865E-06   -0.50851E-06  9024   0.975E-03
DAV:   6    -0.572767380219E+04   -0.21720E-07   -0.21747E-07  6768   0.204E-03
DAV:   7    -0.572767380219E+04   -0.99953E-09   -0.96466E-09  4384   0.527E-04
       N       E                     dE             d eps       ncg     rms
RMM:   1    -0.575104275823E+03   -0.57510E+03   -0.13848E+03  6437   0.323E+02
RMM:   2    -0.667523158346E+03   -0.92419E+02   -0.30012E+02 10328   0.423E+01
RMM:   3    -0.675791946016E+03   -0.82688E+01   -0.33940E+01 11015   0.112E+01
RMM:   4    -0.676830157017E+03   -0.10382E+01   -0.28806E+00 11164   0.314E+00
RMM:   5    -0.676924007851E+03   -0.93851E-01   -0.26170E-01 11625   0.101E+00
RMM:   6    -0.676934652162E+03   -0.10644E-01   -0.35647E-02 11188   0.300E-01
RMM:   7    -0.676935911247E+03   -0.12591E-02   -0.42224E-03 11550   0.103E-01
RMM:   8    -0.676936087408E+03   -0.17616E-03   -0.68176E-04 11413   0.337E-02
RMM:   9    -0.676936114811E+03   -0.27403E-04   -0.10342E-04 11017   0.119E-02
RMM:  10    -0.676936118978E+03   -0.41662E-05   -0.16973E-05  9341   0.432E-03
RMM:  11    -0.676936119728E+03   -0.75063E-06   -0.30535E-06  7610   0.168E-03
RMM:  12    -0.676936119839E+03   -0.11074E-06   -0.46594E-07  6149   0.720E-04
RMM:  13    -0.676936119861E+03   -0.21966E-07   -0.91111E-08  4763   0.370E-04
RMM:  14    -0.676936119864E+03   -0.29041E-08   -0.11290E-08  3468   0.252E-04
BDIR= 3  IDIR= 2  IQ= -1
DAV:   1    -0.572759522816E+04   -0.57276E+04   -0.16740E+00  5676   0.554E+00
DAV:   2    -0.572761104544E+04   -0.15817E-01   -0.15817E-01  7992   0.178E+00
DAV:   3    -0.572761156863E+04   -0.52319E-03   -0.52318E-03  8912   0.299E-01
DAV:   4    -0.572761158300E+04   -0.14371E-04   -0.14370E-04  8608   0.492E-02
DAV:   5    -0.572761158361E+04   -0.61403E-06   -0.61420E-06  9088   0.104E-02
DAV:   6    -0.572761158364E+04   -0.27712E-07   -0.27594E-07  6784   0.215E-03
DAV:   7    -0.572761158364E+04   -0.11987E-08   -0.13576E-08  4424   0.556E-04
       N       E                     dE             d eps       ncg     rms
RMM:   1    -0.576940716375E+03   -0.57694E+03   -0.13282E+03  6538   0.316E+02
RMM:   2    -0.667951371462E+03   -0.91011E+02   -0.29264E+02 10302   0.414E+01
RMM:   3    -0.676102282409E+03   -0.81509E+01   -0.33903E+01 11006   0.112E+01
RMM:   4    -0.677105577715E+03   -0.10033E+01   -0.26941E+00 11194   0.312E+00
RMM:   5    -0.677191590380E+03   -0.86013E-01   -0.25323E-01 11580   0.102E+00
RMM:   6    -0.677201557077E+03   -0.99667E-02   -0.32344E-02 11173   0.294E-01
RMM:   7    -0.677202685076E+03   -0.11280E-02   -0.36633E-03 11446   0.100E-01
RMM:   8    -0.677202844774E+03   -0.15970E-03   -0.60337E-04 11331   0.326E-02
RMM:   9    -0.677202869546E+03   -0.24772E-04   -0.89837E-05 10956   0.115E-02
RMM:  10    -0.677202873222E+03   -0.36753E-05   -0.14589E-05  9575   0.403E-03
RMM:  11    -0.677202873879E+03   -0.65741E-06   -0.24953E-06  7639   0.156E-03
RMM:  12    -0.677202873984E+03   -0.10498E-06   -0.42394E-07  5812   0.673E-04
RMM:  13    -0.677202874004E+03   -0.20070E-07   -0.79440E-08  4505   0.359E-04
RMM:  14    -0.677202874007E+03   -0.30968E-08   -0.11761E-08  3473   0.252E-04
BDIR= 3  IDIR= 2  IQ=  0
DAV:   1    -0.572767708118E+04   -0.57277E+04   -0.67932E-09  3552   0.619E-04
DAV:   2    -0.572767708118E+04   -0.18008E-09   -0.29126E-09  3552   0.350E-04
       N       E                     dE             d eps       ncg     rms
RMM:   1    -0.576975772634E+03   -0.57698E+03   -0.13298E+03  6539   0.316E+02
RMM:   2    -0.667941928224E+03   -0.90966E+02   -0.29208E+02 10300   0.414E+01
RMM:   3    -0.676058929686E+03   -0.81170E+01   -0.33656E+01 11002   0.111E+01
RMM:   4    -0.677054399470E+03   -0.99547E+00   -0.26712E+00 11181   0.311E+00
RMM:   5    -0.677140237629E+03   -0.85838E-01   -0.25262E-01 11584   0.101E+00
RMM:   6    -0.677150177089E+03   -0.99395E-02   -0.31701E-02 11159   0.292E-01
RMM:   7    -0.677151308052E+03   -0.11310E-02   -0.36941E-03 11472   0.100E-01
RMM:   8    -0.677151466086E+03   -0.15803E-03   -0.58671E-04 11310   0.325E-02
RMM:   9    -0.677151490483E+03   -0.24397E-04   -0.88096E-05 10979   0.115E-02
RMM:  10    -0.677151494125E+03   -0.36417E-05   -0.14096E-05  9565   0.403E-03
RMM:  11    -0.677151494780E+03   -0.65536E-06   -0.25212E-06  7647   0.158E-03
RMM:  12    -0.677151494887E+03   -0.10674E-06   -0.43493E-07  5850   0.680E-04
RMM:  13    -0.677151494907E+03   -0.20242E-07   -0.79450E-08  4556   0.360E-04
RMM:  14    -0.677151494910E+03   -0.30041E-08   -0.11271E-08  3469   0.250E-04
BDIR= 3  IDIR= 2  IQ=  1
DAV:   1    -0.572772608810E+04   -0.57277E+04   -0.16737E+00  5679   0.554E+00
DAV:   2    -0.572774192973E+04   -0.15842E-01   -0.15842E-01  8000   0.178E+00
DAV:   3    -0.572774243743E+04   -0.50771E-03   -0.50770E-03  8888   0.298E-01
DAV:   4    -0.572774245154E+04   -0.14108E-04   -0.14108E-04  8608   0.491E-02
DAV:   5    -0.572774245215E+04   -0.60507E-06   -0.60486E-06  9056   0.104E-02
DAV:   6    -0.572774245217E+04   -0.26682E-07   -0.26599E-07  6680   0.215E-03
DAV:   7    -0.572774245217E+04   -0.12251E-08   -0.13322E-08  4416   0.570E-04
       N       E                     dE             d eps       ncg     rms
RMM:   1    -0.577030170715E+03   -0.57703E+03   -0.13319E+03  6542   0.316E+02
RMM:   2    -0.667932412468E+03   -0.90902E+02   -0.29170E+02 10309   0.413E+01
RMM:   3    -0.675997202401E+03   -0.80648E+01   -0.33354E+01 10991   0.111E+01
RMM:   4    -0.676985093244E+03   -0.98789E+00   -0.26388E+00 11166   0.311E+00
RMM:   5    -0.677070985394E+03   -0.85892E-01   -0.25137E-01 11592   0.102E+00
RMM:   6    -0.677080860271E+03   -0.98749E-02   -0.31227E-02 11149   0.292E-01
RMM:   7    -0.677081997041E+03   -0.11368E-02   -0.37195E-03 11489   0.101E-01
RMM:   8    -0.677082155565E+03   -0.15852E-03   -0.58127E-04 11313   0.325E-02
RMM:   9    -0.677082179734E+03   -0.24169E-04   -0.86433E-05 11020   0.115E-02
RMM:  10    -0.677082183397E+03   -0.36629E-05   -0.14246E-05  9546   0.404E-03
RMM:  11    -0.677082184047E+03   -0.65027E-06   -0.24698E-06  7678   0.157E-03
RMM:  12    -0.677082184153E+03   -0.10579E-06   -0.42503E-07  5872   0.677E-04
RMM:  13    -0.677082184173E+03   -0.20104E-07   -0.79306E-08  4558   0.359E-04
RMM:  14    -0.677082184176E+03   -0.30417E-08   -0.11611E-08  3469   0.249E-04
       N       E                     dE             d eps       ncg     rms
RLQ:   1    -0.130739525816E+02   -0.13074E+02   -0.15052E+03  5520   0.352E+02
RLQ:   2    -0.172386743904E+02   -0.41647E+01   -0.13909E+01 10842   0.586E+00
RLQ:   3    -0.175453496682E+02   -0.30668E+00   -0.78179E-01 10301   0.146E+00
RLQ:   4    -0.175765882257E+02   -0.31239E-01   -0.11582E-01 10985   0.490E-01
RLQ:   5    -0.175809782700E+02   -0.43900E-02   -0.10476E-02  9972   0.147E-01
RLQ:   6    -0.175814303928E+02   -0.45212E-03   -0.15783E-03 10400   0.520E-02
RLQ:   7    -0.175814864106E+02   -0.56018E-04   -0.17621E-04 10234   0.162E-02
RLQ:   8    -0.175814919907E+02   -0.55802E-05   -0.19028E-05 10162   0.532E-03
RLQ:   9    -0.175814926593E+02   -0.66858E-06   -0.23981E-06  9229   0.176E-03
RLQ:  10    -0.175814927260E+02   -0.66663E-07   -0.23142E-07  7151   0.580E-04
RLQ:  11    -0.175814927350E+02   -0.89646E-08   -0.35618E-08  3873   0.270E-04
 writing wavefunctions
Note: The following floating-point exceptions are signalling: IEEE_INVALID_FLAG IEEE_OVERFLOW_FLAG IEEE_UNDERFLOW_FLAG IEEE_DENORMAL

real	627m37,354s
user	627m3,090s
sys	0m31,540s
/data/ozakary/5012.OUT
total 0
rm: impossible de supprimer '/data/ozakary/5012.OUT/*': Aucun fichier ou dossier de ce type
Job finished at
ven. 27 janv. 2023 21:21:12 CET
