Loading vasp/6.2.1-gcc-10.2
  Loading requirement: hdf5/1.12.1-gcc-10.2 wannier90/3.1.0-gcc-10.2
 ----------------------------------------------------
    OOO  PPPP  EEEEE N   N M   M PPPP
   O   O P   P E     NN  N MM MM P   P
   O   O PPPP  EEEEE N N N M M M PPPP   -- VERSION
   O   O P     E     N  NN M   M P
    OOO  P     EEEEE N   N M   M P
 ----------------------------------------------------
 running    8 mpi-ranks, with    1 threads/rank
 distrk:  each k-point on    8 cores,    1 groups
 distr:  one band on    1 cores,    8 groups
 vasp.6.2.1 16May21 (build Jan  3 2022 11:18:50) complex                         
 POSCAR found type information on POSCAR NaTaO F 
 POSCAR found :  4 types and      24 ions
 Reading from existing POTCAR
 scaLAPACK will be used
 Reading from existing POTCAR
 LDA part: xc-table for Pade appr. of Perdew
 POSCAR, INCAR and KPOINTS ok, starting setup
 FFT: planning ...
 WAVECAR not read
 entering main loop
       N       E                     dE             d eps       ncg     rms          rms(c)
DAV:   1     0.346397240329E+04    0.34640E+04   -0.10338E+05  5800   0.182E+03
DAV:   2     0.362921130487E+03   -0.31011E+04   -0.28544E+04  5800   0.680E+02
DAV:   3    -0.210314938869E+03   -0.57324E+03   -0.56120E+03  9032   0.325E+02
DAV:   4    -0.241139254167E+03   -0.30824E+02   -0.30691E+02  9240   0.920E+01
DAV:   5    -0.241634268697E+03   -0.49501E+00   -0.49435E+00  9104   0.128E+01    0.114E+02
DAV:   6    -0.198872344118E+03    0.42762E+02   -0.16748E+02  9120   0.597E+01    0.196E+02
DAV:   7    -0.202499750042E+03   -0.36274E+01   -0.11687E+01  8760   0.170E+01    0.175E+02
DAV:   8    -0.205338540725E+03   -0.28388E+01   -0.22298E+01  8776   0.240E+01    0.328E+02
DAV:   9    -0.196415186884E+03    0.89234E+01   -0.24300E+01  9288   0.237E+01    0.284E+02
DAV:  10    -0.196807644475E+03   -0.39246E+00   -0.44467E+00  9008   0.102E+01    0.215E+02
DAV:  11    -0.196628395264E+03    0.17925E+00   -0.30937E-01  9352   0.308E+00    0.151E+02
DAV:  12    -0.196504150350E+03    0.12424E+00   -0.25086E-01  8552   0.301E+00    0.238E+01
DAV:  13    -0.196484804337E+03    0.19346E-01   -0.77338E-02  8776   0.135E+00    0.519E+00
DAV:  14    -0.196483988008E+03    0.81633E-03   -0.15795E-02  8680   0.648E-01    0.204E-01
DAV:  15    -0.196484210543E+03   -0.22254E-03   -0.30453E-03  8944   0.350E-01    0.108E+00
DAV:  16    -0.196484291488E+03   -0.80945E-04   -0.85323E-04  9024   0.191E-01    0.949E-01
DAV:  17    -0.196484324177E+03   -0.32689E-04   -0.13999E-04  9640   0.851E-02    0.725E-02
DAV:  18    -0.196484342595E+03   -0.18418E-04   -0.51836E-05  8536   0.336E-02    0.550E-02
DAV:  19    -0.196484346824E+03   -0.42287E-05   -0.15877E-05  8696   0.216E-02    0.422E-02
DAV:  20    -0.196484346929E+03   -0.10515E-06   -0.24698E-06  8848   0.110E-02    0.372E-03
DAV:  21    -0.196484347206E+03   -0.27733E-06   -0.13662E-06  8592   0.518E-03    0.837E-03
DAV:  22    -0.196484347202E+03    0.45948E-08   -0.13896E-07  7728   0.185E-03    0.526E-03
DAV:  23    -0.196484347226E+03   -0.24236E-07   -0.27113E-08  5256   0.931E-04    0.176E-03
DAV:  24    -0.196484347219E+03    0.65411E-08   -0.52142E-09  4032   0.486E-04
   1 F= -.19648435E+03 E0= -.19648435E+03  d E =-.196484E+03
 curvature:   0.00 expect dE= 0.000E+00 dE for cont linesearch  0.000E+00
 trial: gam= 0.00000 g(F)=  0.801E+00 g(S)=  0.324E-01 ort = 0.000E+00 (trialstep = 0.100E+01)
 search vector abs. value=  0.834E+00
 bond charge predicted
       N       E                     dE             d eps       ncg     rms          rms(c)
DAV:   1    -0.195671886182E+03    0.81246E+00   -0.24717E+02  6336   0.742E+01    0.675E+00
DAV:   2    -0.196519159760E+03   -0.84727E+00   -0.15580E+01  8416   0.196E+01    0.889E+00
DAV:   3    -0.196472739237E+03    0.46421E-01   -0.40781E-01  9360   0.413E+00    0.585E+00
DAV:   4    -0.196374210776E+03    0.98528E-01   -0.24317E-01  8872   0.235E+00    0.322E+00
DAV:   5    -0.196337218202E+03    0.36993E-01   -0.79050E-02  8888   0.173E+00    0.204E+00
DAV:   6    -0.196337297887E+03   -0.79686E-04   -0.41221E-02  9232   0.101E+00    0.327E+00
DAV:   7    -0.196337387572E+03   -0.89685E-04   -0.10254E-03  9072   0.187E-01    0.336E+00
DAV:   8    -0.196337344642E+03    0.42930E-04   -0.10928E-04  9344   0.640E-02    0.381E+00
DAV:   9    -0.196337784284E+03   -0.43964E-03   -0.74559E-03  9904   0.741E-01    0.549E+00
DAV:  10    -0.196337147096E+03    0.63719E-03   -0.13197E-03  8584   0.241E-01    0.319E+00
DAV:  11    -0.196336865222E+03    0.28187E-03   -0.38515E-04  8944   0.108E-01    0.243E+00
DAV:  12    -0.196336798734E+03    0.66488E-04   -0.54623E-05  8984   0.503E-02    0.184E+00
DAV:  13    -0.196336597807E+03    0.20093E-03   -0.69907E-04  8248   0.140E-01    0.899E-02
DAV:  14    -0.196336601467E+03   -0.36599E-05   -0.69690E-05  8448   0.340E-02    0.571E-02
DAV:  15    -0.196336602077E+03   -0.61053E-06   -0.34461E-06  9224   0.776E-03    0.331E-02
DAV:  16    -0.196336601902E+03    0.17554E-06   -0.33398E-06  9760   0.127E-02    0.155E-01
DAV:  17    -0.196336602337E+03   -0.43491E-06   -0.20959E-06  8464   0.987E-03    0.215E-02
DAV:  18    -0.196336602322E+03    0.14261E-07   -0.47425E-07  8432   0.354E-03    0.856E-03
DAV:  19    -0.196336602333E+03   -0.10565E-07   -0.90633E-08  7128   0.141E-03    0.776E-03
DAV:  20    -0.196336602257E+03    0.76056E-07   -0.64596E-08  6568   0.139E-03    0.248E-03
DAV:  21    -0.196336602246E+03    0.11343E-07   -0.16817E-08  4616   0.737E-04    0.100E-03
DAV:  22    -0.196336602250E+03   -0.45984E-08   -0.56933E-09  3712   0.595E-04
   2 F= -.19633660E+03 E0= -.19633660E+03  d E =0.147745E+00
 trial-energy change:    0.147745  1 .order    0.182211   -0.833723    1.198145
 step:   0.4353(harm=  0.4103)  dis= 0.03191  next Energy=  -196.668668 (dE=-0.184E+00)
 bond charge predicted
       N       E                     dE             d eps       ncg     rms          rms(c)
DAV:   1    -0.196484264041E+03   -0.14766E+00   -0.80405E+01  6400   0.424E+01    0.420E+00
DAV:   2    -0.196731347873E+03   -0.24708E+00   -0.42233E+00  8312   0.100E+01    0.424E+00
DAV:   3    -0.196712325309E+03    0.19023E-01   -0.12938E-01  9184   0.231E+00    0.420E+00
DAV:   4    -0.196694783304E+03    0.17542E-01   -0.19532E-02  9184   0.812E-01    0.320E+00
DAV:   5    -0.196667635182E+03    0.27148E-01   -0.55146E-02  8176   0.133E+00    0.160E+00
DAV:   6    -0.196667976128E+03   -0.34095E-03   -0.15774E-02  9400   0.608E-01    0.302E+00
DAV:   7    -0.196668077933E+03   -0.10180E-03   -0.52154E-04  8928   0.159E-01    0.310E+00
DAV:   8    -0.196668029438E+03    0.48495E-04   -0.50553E-05  9280   0.425E-02    0.332E+00
DAV:   9    -0.196668016299E+03    0.13138E-04   -0.37982E-05  9432   0.328E-02    0.402E+00
DAV:  10    -0.196668141834E+03   -0.12553E-03   -0.23803E-03  9280   0.354E-01    0.644E+00
DAV:  11    -0.196668167905E+03   -0.26071E-04   -0.42550E-04 10096   0.141E-01    0.688E+00
DAV:  12    -0.196668020498E+03    0.14741E-03   -0.14547E-04  8928   0.102E-01    0.407E+00
DAV:  13    -0.196667937128E+03    0.83370E-04   -0.25518E-04  8472   0.872E-02    0.188E+00
DAV:  14    -0.196667933837E+03    0.32905E-05   -0.33303E-05  8856   0.263E-02    0.117E+00
DAV:  15    -0.196667931893E+03    0.19441E-05   -0.22379E-05  8040   0.297E-02    0.257E-01
DAV:  16    -0.196667932453E+03   -0.55961E-06   -0.39512E-06  9128   0.121E-02    0.664E-02
DAV:  17    -0.196667932861E+03   -0.40829E-06   -0.50210E-07  7984   0.327E-03    0.129E-01
DAV:  18    -0.196667933152E+03   -0.29058E-06   -0.28461E-07  7720   0.308E-03    0.563E-02
DAV:  19    -0.196667933191E+03   -0.39174E-07   -0.12254E-07  8456   0.206E-03    0.359E-03
DAV:  20    -0.196667933220E+03   -0.28984E-07   -0.34407E-09  4008   0.379E-04    0.263E-04
DAV:  21    -0.196667933227E+03   -0.73851E-08   -0.31653E-09  3872   0.370E-04
   3 F= -.19666793E+03 E0= -.19666793E+03  d E =-.183586E+00
 curvature:  -0.20 expect dE=-0.248E-01 dE for cont linesearch -0.155E-05
 trial: gam= 0.14230 g(F)=  0.101E+00 g(S)=  0.202E-01 ort = 0.251E-02 (trialstep = 0.887E+00)
 search vector abs. value=  0.139E+00
 bond charge predicted
       N       E                     dE             d eps       ncg     rms          rms(c)
DAV:   1    -0.196685861648E+03   -0.17928E-01   -0.29623E+01  6216   0.293E+01    0.344E+00
DAV:   2    -0.196765080018E+03   -0.79218E-01   -0.12295E+00  8552   0.550E+00    0.106E+00
DAV:   3    -0.196752326468E+03    0.12754E-01   -0.31392E-02  9176   0.107E+00    0.187E+00
DAV:   4    -0.196751838626E+03    0.48784E-03   -0.23262E-03  9216   0.276E-01    0.155E+00
DAV:   5    -0.196747901555E+03    0.39371E-02   -0.68104E-03  8680   0.518E-01    0.121E+00
DAV:   6    -0.196747369939E+03    0.53162E-03   -0.28972E-03  8904   0.279E-01    0.146E+00
DAV:   7    -0.196747394013E+03   -0.24074E-04   -0.34363E-04  8608   0.908E-02    0.157E+00
DAV:   8    -0.196747386748E+03    0.72656E-05   -0.17390E-05  9168   0.198E-02    0.197E+00
DAV:   9    -0.196747379024E+03    0.77237E-05   -0.12107E-05  8664   0.186E-02    0.155E+00
DAV:  10    -0.196747404428E+03   -0.25404E-04   -0.29023E-04  7848   0.936E-02    0.173E+00
DAV:  11    -0.196747397687E+03    0.67411E-05   -0.36436E-05  8664   0.296E-02    0.169E+00
DAV:  12    -0.196747375469E+03    0.22218E-04   -0.46696E-05  7976   0.362E-02    0.623E-01
DAV:  13    -0.196747372992E+03    0.24769E-05   -0.15041E-05  9016   0.168E-02    0.236E-01
DAV:  14    -0.196747372234E+03    0.75771E-06   -0.13126E-06  9104   0.591E-03    0.127E-01
DAV:  15    -0.196747372091E+03    0.14323E-06   -0.27498E-07  8280   0.239E-03    0.616E-02
DAV:  16    -0.196747372059E+03    0.32374E-07   -0.13454E-08  4016   0.104E-03    0.397E-02
DAV:  17    -0.196747372044E+03    0.14297E-07   -0.10322E-07  7184   0.161E-03    0.768E-04
DAV:  18    -0.196747372051E+03   -0.64356E-08   -0.69493E-09  3608   0.680E-04
   4 F= -.19674737E+03 E0= -.19674737E+03  d E =-.794388E-01
 trial-energy change:   -0.079439  1 .order   -0.079729   -0.107789   -0.051668
 step:   1.7572(harm=  1.7037)  dis= 0.03114  next Energy=  -196.772438 (dE=-0.105E+00)
 bond charge predicted
       N       E                     dE             d eps       ncg     rms          rms(c)
DAV:   1    -0.196712367563E+03    0.35004E-01   -0.28493E+01  6216   0.287E+01    0.341E+00
DAV:   2    -0.196788503075E+03   -0.76136E-01   -0.11824E+00  8512   0.537E+00    0.101E+00
DAV:   3    -0.196775945126E+03    0.12558E-01   -0.32019E-02  9184   0.108E+00    0.180E+00
DAV:   4    -0.196775693965E+03    0.25116E-03   -0.23276E-03  9216   0.277E-01    0.155E+00
DAV:   5    -0.196772777188E+03    0.29168E-02   -0.33529E-03  8728   0.372E-01    0.714E-01
DAV:   6    -0.196771569293E+03    0.12079E-02   -0.39665E-03  8512   0.311E-01    0.133E+00
DAV:   7    -0.196771611869E+03   -0.42576E-04   -0.68274E-04  8416   0.128E-01    0.128E+00
DAV:   8    -0.196771616405E+03   -0.45360E-05   -0.21542E-05  9136   0.238E-02    0.189E+00
DAV:   9    -0.196771605870E+03    0.10535E-04   -0.16011E-04  8568   0.782E-02    0.574E-01
DAV:  10    -0.196771612433E+03   -0.65627E-05   -0.50713E-05  8048   0.324E-02    0.251E-01
DAV:  11    -0.196771601160E+03    0.11273E-04   -0.20718E-05  8936   0.271E-02    0.114E-01
DAV:  12    -0.196771599650E+03    0.15102E-05   -0.87838E-06  8528   0.124E-02    0.657E-02
DAV:  13    -0.196771599457E+03    0.19350E-06   -0.67769E-07  9464   0.499E-03    0.282E-02
DAV:  14    -0.196771599275E+03    0.18187E-06   -0.10483E-06  8224   0.641E-03    0.940E-02
DAV:  15    -0.196771599321E+03   -0.46508E-07   -0.54990E-07  8776   0.379E-03    0.115E-01
DAV:  16    -0.196771599306E+03    0.15414E-07   -0.17637E-08  4592   0.958E-04    0.102E-01
DAV:  17    -0.196771599266E+03    0.40291E-07   -0.12000E-07  6024   0.155E-03    0.623E-02
DAV:  18    -0.196771599266E+03   -0.17099E-09   -0.19437E-08  3992   0.769E-04
   5 F= -.19677160E+03 E0= -.19677160E+03  d E =-.103666E+00
 curvature:  -0.97 expect dE=-0.968E-01 dE for cont linesearch -0.312E-04
 trial: gam= 0.81505 g(F)=  0.344E-01 g(S)=  0.655E-01 ort =-0.211E-02 (trialstep = 0.780E+00)
 search vector abs. value=  0.189E+00
 bond charge predicted
       N       E                     dE             d eps       ncg     rms          rms(c)
DAV:   1    -0.197009106419E+03   -0.23751E+00   -0.33716E+01  8408   0.343E+01    0.613E+00
DAV:   2    -0.196866436156E+03    0.14267E+00   -0.11568E+00  8680   0.535E+00    0.436E+00
DAV:   3    -0.196840073663E+03    0.26362E-01   -0.43063E-02  9216   0.142E+00    0.566E+00
DAV:   4    -0.196836197421E+03    0.38762E-02   -0.37659E-03  9256   0.391E-01    0.363E+00
DAV:   5    -0.196819981907E+03    0.16216E-01   -0.35598E-02  8424   0.943E-01    0.939E-01
DAV:   6    -0.196820222482E+03   -0.24058E-03   -0.67882E-03  9120   0.426E-01    0.287E+00
DAV:   7    -0.196820252873E+03   -0.30390E-04   -0.31097E-04  9264   0.924E-02    0.363E+00
DAV:   8    -0.196820247249E+03    0.56237E-05   -0.10533E-05  9416   0.179E-02    0.362E+00
DAV:   9    -0.196820315782E+03   -0.68533E-04   -0.39634E-04  7896   0.119E-01    0.296E+00
DAV:  10    -0.196820301764E+03    0.14018E-04   -0.52616E-05  8976   0.443E-02    0.284E+00
DAV:  11    -0.196820290727E+03    0.11037E-04   -0.16382E-05  9112   0.196E-02    0.253E+00
DAV:  12    -0.196820291243E+03   -0.51639E-06   -0.12590E-06  9192   0.885E-03    0.234E+00
DAV:  13    -0.196820291547E+03   -0.30352E-06   -0.48963E-06  7952   0.120E-02    0.150E+00
DAV:  14    -0.196820282640E+03    0.89070E-05   -0.15960E-05  8672   0.230E-02    0.963E-01
DAV:  15    -0.196820282020E+03    0.61908E-06   -0.75728E-06  7576   0.116E-02    0.531E-01
DAV:  16    -0.196820282137E+03   -0.11632E-06   -0.96927E-07  9760   0.494E-03    0.259E-01
DAV:  17    -0.196820282072E+03    0.64967E-07   -0.27625E-07  8264   0.274E-03    0.989E-02
DAV:  18    -0.196820282151E+03   -0.79392E-07   -0.47676E-08  6232   0.131E-03    0.252E-02
DAV:  19    -0.196820282172E+03   -0.20977E-07   -0.52689E-08  5912   0.105E-03    0.770E-03
DAV:  20    -0.196820282233E+03   -0.60325E-07   -0.54236E-09  3760   0.608E-04    0.880E-03
DAV:  21    -0.196820282265E+03   -0.32396E-07   -0.51307E-09  3640   0.533E-04    0.522E-03
DAV:  22    -0.196820282256E+03    0.92950E-08   -0.28601E-09  3456   0.508E-04
   6 F= -.19682028E+03 E0= -.19682028E+03  d E =-.486830E-01
 trial-energy change:   -0.048683  1 .order   -0.048656   -0.076634   -0.020678
 step:   1.0689(harm=  1.0689)  dis= 0.02441  next Energy=  -196.824076 (dE=-0.525E-01)
 bond charge predicted
       N       E                     dE             d eps       ncg     rms          rms(c)
DAV:   1    -0.196849585140E+03   -0.29303E-01   -0.45558E+00  8256   0.125E+01    0.218E+00
DAV:   2    -0.196830606803E+03    0.18978E-01   -0.16340E-01  8664   0.201E+00    0.166E+00
DAV:   3    -0.196827130482E+03    0.34763E-02   -0.57846E-03  9240   0.513E-01    0.209E+00
DAV:   4    -0.196826505316E+03    0.62517E-03   -0.56867E-04  9320   0.154E-01    0.128E+00
DAV:   5    -0.196824300151E+03    0.22052E-02   -0.48877E-03  8432   0.352E-01    0.394E-01
DAV:   6    -0.196824332744E+03   -0.32593E-04   -0.92427E-04  9112   0.156E-01    0.110E+00
DAV:   7    -0.196824336070E+03   -0.33266E-05   -0.35163E-05  9280   0.315E-02    0.138E+00
DAV:   8    -0.196824334909E+03    0.11618E-05   -0.10868E-06  9176   0.617E-03    0.137E+00
DAV:   9    -0.196824334415E+03    0.49358E-06   -0.63765E-05  7808   0.466E-02    0.971E-01
DAV:  10    -0.196824332579E+03    0.18356E-05   -0.63990E-06  9088   0.164E-02    0.960E-01
DAV:  11    -0.196824330726E+03    0.18533E-05   -0.45041E-06  8776   0.978E-03    0.814E-01
DAV:  12    -0.196824330859E+03   -0.13280E-06   -0.44525E-07  8920   0.440E-03    0.775E-01
DAV:  13    -0.196824331434E+03   -0.57543E-06   -0.11977E-06  7808   0.560E-03    0.437E-01
DAV:  14    -0.196824330325E+03    0.11089E-05   -0.24198E-06  9000   0.943E-03    0.324E-01
DAV:  15    -0.196824330458E+03   -0.13224E-06   -0.43291E-07  7888   0.331E-03    0.163E-01
DAV:  16    -0.196824330554E+03   -0.96778E-07   -0.11744E-07  7448   0.265E-03    0.590E-02
DAV:  17    -0.196824330525E+03    0.29198E-07   -0.81812E-08  6576   0.132E-03    0.288E-02
DAV:  18    -0.196824330529E+03   -0.35579E-08   -0.72052E-09  3600   0.659E-04
   7 F= -.19682433E+03 E0= -.19682433E+03  d E =-.527313E-01
 curvature:  -1.03 expect dE=-0.452E-01 dE for cont linesearch -0.451E-05
 trial: gam= 0.41084 g(F)=  0.234E-01 g(S)=  0.206E-01 ort = 0.910E-03 (trialstep = 0.838E+00)
 search vector abs. value=  0.766E-01
 bond charge predicted
       N       E                     dE             d eps       ncg     rms          rms(c)
DAV:   1    -0.196816909851E+03    0.74207E-02   -0.16769E+01  6192   0.206E+01    0.151E+00
DAV:   2    -0.196853828688E+03   -0.36919E-01   -0.65953E-01  8056   0.416E+00    0.207E+00
DAV:   3    -0.196851077741E+03    0.27509E-02   -0.12452E-02  8960   0.610E-01    0.216E+00
DAV:   4    -0.196849707527E+03    0.13702E-02   -0.70264E-04  9256   0.142E-01    0.178E+00
DAV:   5    -0.196843619181E+03    0.60883E-02   -0.12328E-02  8376   0.663E-01    0.127E+00
DAV:   6    -0.196843836128E+03   -0.21695E-03   -0.23296E-03  9160   0.267E-01    0.124E+00
DAV:   7    -0.196843864385E+03   -0.28257E-04   -0.11903E-04  9192   0.608E-02    0.184E+00
DAV:   8    -0.196843843169E+03    0.21216E-04   -0.30026E-05  8528   0.436E-02    0.120E+00
DAV:   9    -0.196843847181E+03   -0.40116E-05   -0.25579E-04  7776   0.946E-02    0.385E-01
DAV:  10    -0.196843848357E+03   -0.11758E-05   -0.56873E-05  8248   0.323E-02    0.313E-01
DAV:  11    -0.196843845922E+03    0.24352E-05   -0.19023E-06  8824   0.839E-03    0.292E-01
DAV:  12    -0.196843837730E+03    0.81914E-05   -0.31348E-05  7216   0.315E-02    0.594E-02
DAV:  13    -0.196843838052E+03   -0.32223E-06   -0.82321E-06  9016   0.123E-02    0.490E-02
DAV:  14    -0.196843837184E+03    0.86840E-06   -0.40099E-06  9160   0.107E-02    0.345E-02
DAV:  15    -0.196843837039E+03    0.14553E-06   -0.63430E-07  7936   0.387E-03    0.405E-02
DAV:  16    -0.196843836831E+03    0.20798E-06   -0.15469E-07  7272   0.261E-03    0.116E-02
DAV:  17    -0.196843836818E+03    0.12285E-07   -0.81154E-08  6272   0.128E-03    0.465E-03
DAV:  18    -0.196843836815E+03    0.27903E-08   -0.13188E-08  3848   0.987E-04
   8 F= -.19684384E+03 E0= -.19684384E+03  d E =-.195063E-01
 trial-energy change:   -0.019506  1 .order   -0.019330   -0.037170   -0.001490
 step:   0.8721(harm=  0.8732)  dis= 0.01130  next Energy=  -196.843867 (dE=-0.195E-01)
 bond charge predicted
       N       E                     dE             d eps       ncg     rms          rms(c)
DAV:   1    -0.196843817853E+03    0.18966E-04   -0.27551E-02  6480   0.836E-01    0.613E-02
DAV:   2    -0.196843879404E+03   -0.61551E-04   -0.10880E-03  8048   0.168E-01    0.826E-02
DAV:   3    -0.196843874616E+03    0.47877E-05   -0.20622E-05  9040   0.246E-02    0.893E-02
DAV:   4    -0.196843873545E+03    0.10711E-05   -0.68157E-07  9224   0.490E-03    0.825E-02
DAV:   5    -0.196843863861E+03    0.96837E-05   -0.20701E-05  8352   0.273E-02    0.688E-02
DAV:   6    -0.196843863921E+03   -0.59703E-07   -0.44603E-06  9208   0.127E-02    0.661E-02
DAV:   7    -0.196843864024E+03   -0.10309E-06   -0.32879E-07  7992   0.277E-03    0.898E-02
DAV:   8    -0.196843864100E+03   -0.75594E-07   -0.81136E-08  6744   0.196E-03    0.697E-02
DAV:   9    -0.196843864400E+03   -0.30025E-06   -0.36471E-07  7864   0.325E-03    0.122E-02
DAV:  10    -0.196843864458E+03   -0.58291E-07   -0.10646E-07  7496   0.198E-03    0.176E-02
DAV:  11    -0.196843864486E+03   -0.28122E-07   -0.35073E-08  4888   0.832E-04    0.180E-02
DAV:  12    -0.196843864451E+03    0.34965E-07   -0.86825E-09  3544   0.768E-04    0.955E-03
DAV:  13    -0.196843864429E+03    0.22392E-07   -0.62879E-08  6624   0.141E-03    0.266E-03
DAV:  14    -0.196843864426E+03    0.28340E-08   -0.14362E-08  3680   0.666E-04
   9 F= -.19684386E+03 E0= -.19684386E+03  d E =-.195339E-01
 curvature:  -0.75 expect dE=-0.149E-01 dE for cont linesearch -0.597E-08
 trial: gam= 0.48070 g(F)=  0.977E-02 g(S)=  0.100E-01 ort =-0.246E-04 (trialstep = 0.845E+00)
 search vector abs. value=  0.375E-01
 bond charge predicted
       N       E                     dE             d eps       ncg     rms          rms(c)
DAV:   1    -0.196840195979E+03    0.36684E-02   -0.91144E+00  6320   0.154E+01    0.201E+00
DAV:   2    -0.196859713762E+03   -0.19518E-01   -0.38774E-01  7576   0.296E+00    0.597E-01
DAV:   3    -0.196856620982E+03    0.30928E-02   -0.13773E-02  9176   0.654E-01    0.132E+00
DAV:   4    -0.196856601968E+03    0.19013E-04   -0.55115E-04  9048   0.137E-01    0.122E+00
DAV:   5    -0.196856122928E+03    0.47904E-03   -0.34645E-04  8688   0.124E-01    0.370E-01
DAV:   6    -0.196855237483E+03    0.88545E-03   -0.23843E-03  8392   0.269E-01    0.971E-01
DAV:   7    -0.196855277865E+03   -0.40383E-04   -0.53984E-04  8640   0.103E-01    0.102E+00
DAV:   8    -0.196855289866E+03   -0.12000E-04   -0.21085E-05  9712   0.240E-02    0.152E+00
DAV:   9    -0.196855287441E+03    0.24249E-05   -0.12862E-06  9384   0.745E-03    0.152E+00
DAV:  10    -0.196855271120E+03    0.16321E-04   -0.34873E-05  8840   0.326E-02    0.133E+00
DAV:  11    -0.196855264539E+03    0.65811E-05   -0.33442E-05  9248   0.331E-02    0.908E-01
DAV:  12    -0.196855263434E+03    0.11047E-05   -0.50863E-06  8832   0.131E-02    0.623E-01
DAV:  13    -0.196855264550E+03   -0.11161E-05   -0.20981E-06  8624   0.103E-02    0.204E-01
DAV:  14    -0.196855264670E+03   -0.11978E-06   -0.21961E-06  9112   0.764E-03    0.489E-02
DAV:  15    -0.196855263707E+03    0.96320E-06   -0.45708E-06  9552   0.138E-02    0.703E-02
DAV:  16    -0.196855263588E+03    0.11817E-06   -0.94292E-07  8664   0.429E-03    0.105E-01
DAV:  17    -0.196855263398E+03    0.19030E-06   -0.55704E-08  6112   0.156E-03    0.102E-01
DAV:  18    -0.196855262954E+03    0.44440E-06   -0.51510E-07  8320   0.307E-03    0.558E-02
DAV:  19    -0.196855262812E+03    0.14188E-06   -0.21166E-07  8008   0.208E-03    0.251E-02
DAV:  20    -0.196855262739E+03    0.72992E-07   -0.44135E-08  5312   0.116E-03    0.110E-02
DAV:  21    -0.196855262695E+03    0.43899E-07   -0.36503E-08  4976   0.925E-04    0.122E-03
DAV:  22    -0.196855262677E+03    0.17706E-07   -0.52487E-09  3456   0.558E-04    0.629E-04
DAV:  23    -0.196855262685E+03   -0.77926E-08   -0.27068E-09  3456   0.411E-04
  10 F= -.19685526E+03 E0= -.19685526E+03  d E =-.113983E-01
 trial-energy change:   -0.011398  1 .order   -0.011446   -0.016714   -0.006178
 step:   1.3631(harm=  1.3404)  dis= 0.01347  next Energy=  -196.857146 (dE=-0.133E-01)
 bond charge predicted
       N       E                     dE             d eps       ncg     rms          rms(c)
DAV:   1    -0.196851321130E+03    0.39415E-02   -0.34241E+00  6296   0.945E+00    0.122E+00
DAV:   2    -0.196858674773E+03   -0.73536E-02   -0.14675E-01  7592   0.182E+00    0.367E-01
DAV:   3    -0.196857529043E+03    0.11457E-02   -0.51343E-03  9168   0.404E-01    0.798E-01
DAV:   4    -0.196857517463E+03    0.11580E-04   -0.20865E-04  9040   0.837E-02    0.739E-01
DAV:   5    -0.196857312575E+03    0.20489E-03   -0.16814E-04  8624   0.862E-02    0.177E-01
DAV:   6    -0.196857002124E+03    0.31045E-03   -0.83964E-04  8376   0.160E-01    0.575E-01
DAV:   7    -0.196857017276E+03   -0.15152E-04   -0.19606E-04  8664   0.614E-02    0.628E-01
DAV:   8    -0.196857021326E+03   -0.40500E-05   -0.72907E-06  9688   0.145E-02    0.927E-01
DAV:   9    -0.196857020292E+03    0.10344E-05   -0.49788E-07  9392   0.472E-03    0.925E-01
DAV:  10    -0.196857012428E+03    0.78641E-05   -0.19394E-05  9248   0.248E-02    0.682E-01
DAV:  11    -0.196857010994E+03    0.14331E-05   -0.12172E-05  8992   0.186E-02    0.419E-01
DAV:  12    -0.196857010354E+03    0.64002E-06   -0.20944E-06  8880   0.779E-03    0.322E-01
DAV:  13    -0.196857010978E+03   -0.62382E-06   -0.14074E-06  8960   0.981E-03    0.527E-02
DAV:  14    -0.196857010734E+03    0.24455E-06   -0.63191E-07  9016   0.430E-03    0.307E-02
DAV:  15    -0.196857010449E+03    0.28444E-06   -0.34917E-06  9224   0.110E-02    0.729E-02
DAV:  16    -0.196857010369E+03    0.80472E-07   -0.45424E-07  7792   0.305E-03    0.787E-02
DAV:  17    -0.196857010229E+03    0.13958E-06   -0.67527E-08  6040   0.110E-03    0.790E-02
DAV:  18    -0.196857010049E+03    0.18066E-06   -0.16086E-07  6816   0.172E-03    0.519E-02
DAV:  19    -0.196857009977E+03    0.71879E-07   -0.11980E-07  6792   0.158E-03    0.253E-02
DAV:  20    -0.196857009963E+03    0.14115E-07   -0.33208E-08  4160   0.893E-04    0.112E-02
DAV:  21    -0.196857009949E+03    0.13781E-07   -0.13691E-08  3656   0.735E-04    0.367E-03
DAV:  22    -0.196857009945E+03    0.41000E-08   -0.62320E-09  3456   0.578E-04
  11 F= -.19685701E+03 E0= -.19685701E+03  d E =-.131455E-01
 curvature:  -1.27 expect dE=-0.194E-01 dE for cont linesearch -0.945E-05
 trial: gam= 0.79588 g(F)=  0.134E-01 g(S)=  0.196E-02 ort =-0.529E-03 (trialstep = 0.930E+00)
 search vector abs. value=  0.382E-01
 bond charge predicted
       N       E                     dE             d eps       ncg     rms          rms(c)
DAV:   1    -0.196870291552E+03   -0.13282E-01   -0.11779E+01  7264   0.170E+01    0.248E+00
DAV:   2    -0.196870329651E+03   -0.38099E-04   -0.45664E-01  7584   0.323E+00    0.837E-01
DAV:   3    -0.196863485392E+03    0.68443E-02   -0.23395E-02  8664   0.638E-01    0.221E+00
DAV:   4    -0.196863479277E+03    0.61145E-05   -0.71212E-04  8952   0.143E-01    0.245E+00
DAV:   5    -0.196861095706E+03    0.23836E-02   -0.62624E-03  8160   0.441E-01    0.816E-01
DAV:   6    -0.196860866067E+03    0.22964E-03   -0.33000E-03  8432   0.258E-01    0.909E-01
DAV:   7    -0.196860794475E+03    0.71592E-04   -0.16527E-04  9032   0.792E-02    0.943E-01
DAV:   8    -0.196860805751E+03   -0.11275E-04   -0.85580E-06  8744   0.147E-02    0.105E+00
DAV:   9    -0.196860686797E+03    0.11895E-03   -0.13721E-04  7608   0.558E-02    0.537E-01
DAV:  10    -0.196860704484E+03   -0.17687E-04   -0.62827E-04  8448   0.122E-01    0.642E-01
DAV:  11    -0.196860660281E+03    0.44203E-04   -0.99872E-05  8016   0.502E-02    0.439E-01
DAV:  12    -0.196860643215E+03    0.17067E-04   -0.46818E-05  8312   0.305E-02    0.168E-01
DAV:  13    -0.196860643591E+03   -0.37683E-06   -0.15428E-05  7864   0.161E-02    0.348E-02
DAV:  14    -0.196860644266E+03   -0.67448E-06   -0.14252E-06  8944   0.497E-03    0.688E-02
DAV:  15    -0.196860644051E+03    0.21501E-06   -0.11733E-07  7976   0.232E-03    0.460E-02
DAV:  16    -0.196860643815E+03    0.23552E-06   -0.40353E-07  8344   0.292E-03    0.895E-03
DAV:  17    -0.196860643856E+03   -0.40520E-07   -0.60502E-08  5608   0.108E-03    0.285E-03
DAV:  18    -0.196860643864E+03   -0.81054E-08   -0.48697E-09  3656   0.513E-04
  12 F= -.19686064E+03 E0= -.19686064E+03  d E =-.363392E-02
 trial-energy change:   -0.003634  1 .order   -0.003551   -0.013853    0.006750
 step:   0.6304(harm=  0.6255)  dis= 0.00621  next Energy=  -196.861729 (dE=-0.472E-02)
 bond charge predicted
       N       E                     dE             d eps       ncg     rms          rms(c)
DAV:   1    -0.196862712154E+03   -0.20683E-02   -0.12202E+00  7176   0.544E+00    0.766E-01
DAV:   2    -0.196862672091E+03    0.40063E-04   -0.48672E-02  7560   0.105E+00    0.295E-01
DAV:   3    -0.196862010389E+03    0.66170E-03   -0.23618E-03  8840   0.204E-01    0.713E-01
DAV:   4    -0.196862009044E+03    0.13447E-05   -0.86286E-05  9016   0.469E-02    0.806E-01
DAV:   5    -0.196861753484E+03    0.25556E-03   -0.86458E-04  8184   0.165E-01    0.960E-02
DAV:   6    -0.196861736222E+03    0.17262E-04   -0.33953E-04  8680   0.870E-02    0.437E-01
DAV:   7    -0.196861729617E+03    0.66050E-05   -0.13462E-05  9176   0.222E-02    0.464E-01
DAV:   8    -0.196861730506E+03   -0.88928E-06   -0.71885E-07  9008   0.426E-03    0.501E-01
DAV:   9    -0.196861719042E+03    0.11464E-04   -0.19730E-05  7736   0.205E-02    0.221E-01
DAV:  10    -0.196861733569E+03   -0.14527E-04   -0.78010E-05  8400   0.406E-02    0.414E-01
DAV:  11    -0.196861728347E+03    0.52216E-05   -0.12799E-05  7968   0.173E-02    0.327E-01
DAV:  12    -0.196861723207E+03    0.51405E-05   -0.13641E-05  8120   0.161E-02    0.122E-01
DAV:  13    -0.196861722812E+03    0.39507E-06   -0.20778E-06  8120   0.562E-03    0.446E-02
DAV:  14    -0.196861722633E+03    0.17882E-06   -0.50890E-07  7760   0.299E-03    0.300E-03
DAV:  15    -0.196861722591E+03    0.41455E-07   -0.81949E-08  6536   0.126E-03    0.646E-03
DAV:  16    -0.196861722568E+03    0.23818E-07   -0.16048E-08  4024   0.811E-04    0.390E-03
DAV:  17    -0.196861722568E+03   -0.17826E-09   -0.33088E-08  5504   0.837E-04
  13 F= -.19686172E+03 E0= -.19686172E+03  d E =-.471262E-02
 curvature:  -0.80 expect dE=-0.336E-02 dE for cont linesearch -0.106E-06
 trial: gam= 0.22329 g(F)=  0.352E-02 g(S)=  0.680E-03 ort =-0.709E-04 (trialstep = 0.870E+00)
 search vector abs. value=  0.607E-02
 bond charge predicted
       N       E                     dE             d eps       ncg     rms          rms(c)
DAV:   1    -0.196859189368E+03    0.25332E-02   -0.18196E+00  6144   0.582E+00    0.357E-01
DAV:   2    -0.196864638189E+03   -0.54488E-02   -0.63904E-02  8176   0.128E+00    0.338E-01
DAV:   3    -0.196864494285E+03    0.14390E-03   -0.82209E-04  8952   0.157E-01    0.308E-01
DAV:   4    -0.196864358867E+03    0.13542E-03   -0.15233E-04  8664   0.657E-02    0.189E-01
DAV:   5    -0.196864276268E+03    0.82599E-04   -0.28155E-04  8688   0.947E-02    0.161E-01
DAV:   6    -0.196864278086E+03   -0.18175E-05   -0.58030E-05  8536   0.376E-02    0.157E-01
DAV:   7    -0.196864278174E+03   -0.88756E-07   -0.18009E-06  8952   0.569E-03    0.181E-01
DAV:   8    -0.196864279493E+03   -0.13186E-05   -0.66415E-06  8736   0.140E-02    0.131E-01
DAV:   9    -0.196864281791E+03   -0.22984E-05   -0.29090E-06  8384   0.758E-03    0.880E-02
DAV:  10    -0.196864281825E+03   -0.33713E-07   -0.27357E-07  8448   0.386E-03    0.843E-02
DAV:  11    -0.196864281709E+03    0.11592E-06   -0.17249E-07  7080   0.180E-03    0.801E-02
DAV:  12    -0.196864281643E+03    0.66586E-07   -0.79604E-09  4048   0.704E-04    0.742E-02
DAV:  13    -0.196864281253E+03    0.38958E-06   -0.34522E-07  7144   0.280E-03    0.607E-02
DAV:  14    -0.196864281226E+03    0.26870E-07   -0.74436E-08  6296   0.116E-03    0.531E-02
DAV:  15    -0.196864281132E+03    0.94580E-07   -0.48196E-08  5536   0.118E-03    0.338E-02
DAV:  16    -0.196864280995E+03    0.13662E-06   -0.19021E-07  7352   0.192E-03    0.990E-03
DAV:  17    -0.196864280959E+03    0.36274E-07   -0.62289E-08  6320   0.106E-03    0.387E-03
DAV:  18    -0.196864280953E+03    0.58935E-08   -0.32293E-09  3488   0.412E-04
  14 F= -.19686428E+03 E0= -.19686428E+03  d E =-.255839E-02
 trial-energy change:   -0.002558  1 .order   -0.002552   -0.003637   -0.001467
 step:   1.4425(harm=  1.4587)  dis= 0.00585  next Energy=  -196.864765 (dE=-0.304E-02)
 bond charge predicted
       N       E                     dE             d eps       ncg     rms          rms(c)
DAV:   1    -0.196862575186E+03    0.17058E-02   -0.78660E-01  6144   0.383E+00    0.234E-01
DAV:   2    -0.196864937142E+03   -0.23620E-02   -0.27666E-02  8184   0.843E-01    0.223E-01
DAV:   3    -0.196864874659E+03    0.62483E-04   -0.35263E-04  8992   0.103E-01    0.203E-01
DAV:   4    -0.196864816453E+03    0.58206E-04   -0.63588E-05  8632   0.425E-02    0.125E-01
DAV:   5    -0.196864781556E+03    0.34897E-04   -0.12344E-04  8664   0.625E-02    0.107E-01
DAV:   6    -0.196864782282E+03   -0.72565E-06   -0.25169E-05  8544   0.247E-02    0.104E-01
DAV:   7    -0.196864782318E+03   -0.35896E-07   -0.76206E-07  8808   0.373E-03    0.120E-01
DAV:   8    -0.196864783081E+03   -0.76341E-06   -0.26323E-06  8728   0.891E-03    0.876E-02
DAV:   9    -0.196864784439E+03   -0.13576E-05   -0.13065E-06  8488   0.519E-03    0.557E-02
DAV:  10    -0.196864784515E+03   -0.76376E-07   -0.11993E-07  7416   0.252E-03    0.530E-02
DAV:  11    -0.196864784469E+03    0.46231E-07   -0.10016E-07  6816   0.143E-03    0.499E-02
DAV:  12    -0.196864784440E+03    0.29191E-07   -0.42834E-09  3856   0.544E-04    0.461E-02
DAV:  13    -0.196864784234E+03    0.20549E-06   -0.14789E-07  6664   0.194E-03    0.362E-02
DAV:  14    -0.196864784215E+03    0.19132E-07   -0.47231E-08  5520   0.908E-04    0.319E-02
DAV:  15    -0.196864784174E+03    0.41186E-07   -0.14804E-08  3968   0.771E-04    0.190E-02
DAV:  16    -0.196864784106E+03    0.67514E-07   -0.10751E-07  6880   0.135E-03    0.477E-03
DAV:  17    -0.196864784089E+03    0.17561E-07   -0.96860E-09  3824   0.473E-04    0.137E-03
DAV:  18    -0.196864784088E+03    0.13024E-08   -0.48217E-09  3456   0.528E-04
  15 F= -.19686478E+03 E0= -.19686478E+03  d E =-.306152E-02
 curvature:  -1.06 expect dE=-0.124E-02 dE for cont linesearch -0.248E-05
 trial: gam= 0.26190 g(F)=  0.725E-03 g(S)=  0.442E-03 ort = 0.119E-03 (trialstep = 0.985E+00)
 search vector abs. value=  0.165E-02
 bond charge predicted
       N       E                     dE             d eps       ncg     rms          rms(c)
DAV:   1    -0.196864908468E+03   -0.12438E-03   -0.53997E-01  6512   0.378E+00    0.462E-01
DAV:   2    -0.196865784065E+03   -0.87560E-03   -0.23216E-02  8176   0.739E-01    0.228E-01
DAV:   3    -0.196865614726E+03    0.16934E-03   -0.66988E-04  9216   0.141E-01    0.419E-01
DAV:   4    -0.196865613132E+03    0.15933E-05   -0.17641E-05  9208   0.262E-02    0.407E-01
DAV:   5    -0.196865574000E+03    0.39132E-04   -0.38478E-05  8624   0.380E-02    0.158E-01
DAV:   6    -0.196865482988E+03    0.91012E-04   -0.20675E-04  8440   0.805E-02    0.317E-01
DAV:   7    -0.196865485054E+03   -0.20663E-05   -0.45240E-05  9016   0.323E-02    0.421E-01
DAV:   8    -0.196865485421E+03   -0.36683E-06   -0.11449E-06  9432   0.619E-03    0.516E-01
DAV:   9    -0.196865485538E+03   -0.11709E-06   -0.38819E-08  6000   0.120E-03    0.525E-01
DAV:  10    -0.196865482623E+03    0.29153E-05   -0.38678E-06  9096   0.146E-02    0.386E-01
DAV:  11    -0.196865481850E+03    0.77273E-06   -0.37592E-06  8688   0.948E-03    0.205E-01
DAV:  12    -0.196865482004E+03   -0.15449E-06   -0.26869E-07  8848   0.276E-03    0.115E-01
DAV:  13    -0.196865482042E+03   -0.37238E-07   -0.10186E-07  7656   0.216E-03    0.416E-02
DAV:  14    -0.196865481983E+03    0.59168E-07   -0.85269E-08  6504   0.193E-03    0.148E-02
DAV:  15    -0.196865481851E+03    0.13152E-06   -0.36671E-07  7776   0.301E-03    0.619E-03
DAV:  16    -0.196865481767E+03    0.84394E-07   -0.25589E-08  4200   0.160E-03    0.154E-02
DAV:  17    -0.196865481758E+03    0.87712E-08   -0.78729E-09  3456   0.623E-04
  16 F= -.19686548E+03 E0= -.19686548E+03  d E =-.697670E-03
 trial-energy change:   -0.000698  1 .order   -0.000688   -0.001180   -0.000196
 step:   1.1672(harm=  1.1803)  dis= 0.00206  next Energy=  -196.865500 (dE=-0.716E-03)
 bond charge predicted
       N       E                     dE             d eps       ncg     rms          rms(c)
DAV:   1    -0.196865484936E+03   -0.31693E-05   -0.18546E-02  6480   0.701E-01    0.911E-02
DAV:   2    -0.196865516275E+03   -0.31339E-04   -0.80294E-04  8176   0.137E-01    0.390E-02
DAV:   3    -0.196865510320E+03    0.59558E-05   -0.23600E-05  9216   0.267E-02    0.726E-02
DAV:   4    -0.196865510069E+03    0.25082E-06   -0.79279E-07  9208   0.552E-03    0.668E-02
DAV:   5    -0.196865506227E+03    0.38420E-05   -0.42970E-06  8408   0.123E-02    0.267E-02
DAV:   6    -0.196865504982E+03    0.12448E-05   -0.40312E-06  9136   0.122E-02    0.608E-02
DAV:   7    -0.196865505093E+03   -0.11082E-06   -0.42609E-07  8920   0.352E-03    0.509E-02
DAV:   8    -0.196865505009E+03    0.83743E-07   -0.33305E-08  5520   0.105E-03    0.795E-02
DAV:   9    -0.196865504932E+03    0.77147E-07   -0.40058E-07  7904   0.359E-03    0.470E-03
DAV:  10    -0.196865504679E+03    0.25333E-06   -0.75095E-08  7360   0.140E-03    0.852E-03
DAV:  11    -0.196865504538E+03    0.14034E-06   -0.87082E-08  6344   0.162E-03    0.122E-02
DAV:  12    -0.196865504553E+03   -0.15036E-07   -0.11785E-08  3944   0.762E-04    0.544E-03
DAV:  13    -0.196865504564E+03   -0.10899E-07   -0.83742E-09  3496   0.559E-04    0.362E-04
DAV:  14    -0.196865504566E+03   -0.19609E-08   -0.30163E-09  3456   0.452E-04
  17 F= -.19686550E+03 E0= -.19686550E+03  d E =-.720479E-03
 curvature:  -0.81 expect dE=-0.141E-02 dE for cont linesearch -0.492E-06
 trial: gam= 1.53431 g(F)=  0.152E-02 g(S)=  0.235E-03 ort = 0.317E-04 (trialstep = 0.294E+00)
 search vector abs. value=  0.572E-02
 bond charge predicted
       N       E                     dE             d eps       ncg     rms          rms(c)
DAV:   1    -0.196865513748E+03   -0.91841E-05   -0.14905E-01  5952   0.196E+00    0.120E-01
DAV:   2    -0.196866053624E+03   -0.53988E-03   -0.65394E-03  8352   0.406E-01    0.709E-02
DAV:   3    -0.196866023554E+03    0.30070E-04   -0.88533E-05  9208   0.650E-02    0.491E-02
DAV:   4    -0.196866007090E+03    0.16464E-04   -0.17596E-05  8480   0.229E-02    0.244E-02
DAV:   5    -0.196866001305E+03    0.57847E-05   -0.10170E-05  8480   0.192E-02    0.423E-03
DAV:   6    -0.196866001326E+03   -0.20998E-07   -0.26153E-06  9280   0.887E-03    0.175E-02
DAV:   7    -0.196866001339E+03   -0.13155E-07   -0.92257E-08  7608   0.199E-03    0.211E-02
DAV:   8    -0.196866001292E+03    0.46573E-07   -0.74282E-09  4056   0.823E-04    0.198E-02
DAV:   9    -0.196866001123E+03    0.16916E-06   -0.24931E-07  7304   0.269E-03    0.125E-02
DAV:  10    -0.196866001131E+03   -0.78180E-08   -0.27516E-08  5064   0.111E-03
  18 F= -.19686600E+03 E0= -.19686600E+03  d E =-.496565E-03
 ZBRENT: can't locate minimum, use default step
 trial-energy change:   -0.000497  1 .order   -0.000482   -0.000529   -0.000435
 step:   1.1744(harm=  1.6457)  dis= 0.00452  next Energy=  -196.866987 (dE=-0.148E-02)
 bond charge predicted
       N       E                     dE             d eps       ncg     rms          rms(c)
DAV:   1    -0.196862472882E+03    0.35282E-02   -0.13415E+00  5952   0.589E+00    0.363E-01
DAV:   2    -0.196867329087E+03   -0.48562E-02   -0.58836E-02  8360   0.122E+00    0.213E-01
DAV:   3    -0.196867056895E+03    0.27219E-03   -0.79643E-04  9200   0.195E-01    0.149E-01
DAV:   4    -0.196866911395E+03    0.14550E-03   -0.15540E-04  8504   0.681E-02    0.749E-02
DAV:   5    -0.196866859714E+03    0.51680E-04   -0.93413E-05  8432   0.581E-02    0.120E-02
DAV:   6    -0.196866860913E+03   -0.11983E-05   -0.24345E-05  9200   0.271E-02    0.529E-02
DAV:   7    -0.196866861009E+03   -0.96381E-07   -0.88402E-07  8920   0.627E-03    0.650E-02
DAV:   8    -0.196866860828E+03    0.18108E-06   -0.84739E-08  7832   0.224E-03    0.652E-02
DAV:   9    -0.196866860520E+03    0.30804E-06   -0.15067E-06  7520   0.705E-03    0.500E-02
DAV:  10    -0.196866860490E+03    0.29868E-07   -0.22882E-07  8448   0.346E-03    0.455E-02
DAV:  11    -0.196866860463E+03    0.27394E-07   -0.15359E-07  6224   0.186E-03    0.378E-02
DAV:  12    -0.196866860442E+03    0.21111E-07   -0.14494E-08  4208   0.100E-03    0.355E-02
DAV:  13    -0.196866860386E+03    0.56156E-07   -0.74612E-08  6312   0.137E-03    0.273E-02
DAV:  14    -0.196866860368E+03    0.17659E-07   -0.64938E-09  3584   0.715E-04    0.240E-02
DAV:  15    -0.196866860319E+03    0.49273E-07   -0.84080E-09  3480   0.732E-04    0.152E-02
DAV:  16    -0.196866860286E+03    0.32800E-07   -0.45015E-09  3456   0.479E-04    0.900E-03
DAV:  17    -0.196866860261E+03    0.24793E-07   -0.32939E-09  3456   0.450E-04    0.414E-03
DAV:  18    -0.196866860248E+03    0.13231E-07   -0.44181E-09  3456   0.410E-04    0.203E-03
DAV:  19    -0.196866860239E+03    0.90440E-08   -0.23617E-09  3456   0.352E-04
  19 F= -.19686686E+03 E0= -.19686686E+03  d E =-.135567E-02
 curvature:  -2.30 expect dE=-0.129E-02 dE for cont linesearch -0.896E-04
 ZBRENT: extrapolating
 opt :   1.5874  next Energy=  -196.866958 (dE=-0.145E-02)
 bond charge predicted
       N       E                     dE             d eps       ncg     rms          rms(c)
DAV:   1    -0.196865998785E+03    0.86146E-03   -0.29500E-01  5952   0.276E+00    0.168E-01
DAV:   2    -0.196867065985E+03   -0.10672E-02   -0.12932E-02  8368   0.571E-01    0.100E-01
DAV:   3    -0.196867006625E+03    0.59360E-04   -0.17435E-04  9200   0.910E-02    0.705E-02
DAV:   4    -0.196866974127E+03    0.32498E-04   -0.34725E-05  8440   0.322E-02    0.351E-02
DAV:   5    -0.196866962591E+03    0.11536E-04   -0.20407E-05  8424   0.271E-02    0.566E-03
DAV:   6    -0.196866962729E+03   -0.13849E-06   -0.53537E-06  9192   0.126E-02    0.246E-02
DAV:   7    -0.196866962752E+03   -0.22148E-07   -0.19308E-07  8696   0.292E-03    0.301E-02
DAV:   8    -0.196866962690E+03    0.61638E-07   -0.10304E-08  4232   0.102E-03    0.291E-02
DAV:   9    -0.196866962486E+03    0.20410E-06   -0.45700E-07  7368   0.369E-03    0.225E-02
DAV:  10    -0.196866962506E+03   -0.20711E-07   -0.60513E-08  6424   0.175E-03    0.200E-02
DAV:  11    -0.196866962503E+03    0.31469E-08   -0.32508E-08  4848   0.936E-04
  20 F= -.19686696E+03 E0= -.19686696E+03  d E =-.145794E-02
 curvature:  -2.50 expect dE=-0.233E-02 dE for cont linesearch -0.950E-08
 trial: gam= 0.65283 g(F)=  0.675E-03 g(S)=  0.257E-03 ort = 0.466E-05 (trialstep = 0.552E+00)
 search vector abs. value=  0.338E-02
 bond charge predicted
       N       E                     dE             d eps       ncg     rms          rms(c)
DAV:   1    -0.196866402950E+03    0.55956E-03   -0.34453E-01  5960   0.294E+00    0.216E-01
DAV:   2    -0.196867410742E+03   -0.10078E-02   -0.14146E-02  7816   0.587E-01    0.202E-01
DAV:   3    -0.196867375197E+03    0.35545E-04   -0.32999E-04  8672   0.804E-02    0.253E-01
DAV:   4    -0.196867370549E+03    0.46486E-05   -0.14277E-05  9408   0.160E-02    0.259E-01
DAV:   5    -0.196867364690E+03    0.58591E-05   -0.43994E-06  9096   0.109E-02    0.342E-01
DAV:   6    -0.196867319121E+03    0.45568E-04   -0.13663E-04  8440   0.612E-02    0.437E-01
DAV:   7    -0.196867317986E+03    0.11355E-05   -0.36530E-05  8136   0.256E-02    0.353E-01
DAV:   8    -0.196867318831E+03   -0.84514E-06   -0.17636E-06  9600   0.611E-03    0.444E-01
DAV:   9    -0.196867318606E+03    0.22502E-06   -0.52706E-08  5696   0.165E-03    0.439E-01
DAV:  10    -0.196867318303E+03    0.30249E-06   -0.12111E-07  6648   0.170E-03    0.428E-01
DAV:  11    -0.196867316068E+03    0.22353E-05   -0.30376E-06  8696   0.100E-02    0.262E-01
DAV:  12    -0.196867315615E+03    0.45322E-06   -0.10672E-06  8864   0.423E-03    0.203E-01
DAV:  13    -0.196867315279E+03    0.33535E-06   -0.11535E-07  7184   0.222E-03    0.166E-01
DAV:  14    -0.196867315319E+03   -0.39396E-07   -0.10288E-07  6904   0.136E-03    0.112E-01
DAV:  15    -0.196867315769E+03   -0.45000E-06   -0.87887E-08  7488   0.187E-03    0.114E-01
DAV:  16    -0.196867315861E+03   -0.92245E-07   -0.11290E-08  3456   0.910E-04    0.112E-01
DAV:  17    -0.196867315765E+03    0.95861E-07   -0.27215E-07  7360   0.293E-03    0.298E-02
DAV:  18    -0.196867315709E+03    0.56603E-07   -0.42026E-08  5464   0.133E-03    0.208E-02
DAV:  19    -0.196867315690E+03    0.18299E-07   -0.51172E-09  3456   0.637E-04    0.826E-03
DAV:  20    -0.196867315691E+03   -0.10295E-08   -0.42624E-09  3456   0.416E-04
  21 F= -.19686732E+03 E0= -.19686732E+03  d E =-.353188E-03
 trial-energy change:   -0.000353  1 .order   -0.000367   -0.000516   -0.000219
 step:   0.9587(harm=  0.9587)  dis= 0.00288  next Energy=  -196.867410 (dE=-0.448E-03)
 bond charge predicted
       N       E                     dE             d eps       ncg     rms          rms(c)
DAV:   1    -0.196866893627E+03    0.42206E-03   -0.18650E-01  5960   0.216E+00    0.165E-01
DAV:   2    -0.196867438619E+03   -0.54499E-03   -0.76555E-03  7792   0.431E-01    0.140E-01
DAV:   3    -0.196867417991E+03    0.20628E-04   -0.18398E-04  8656   0.600E-02    0.179E-01
DAV:   4    -0.196867414873E+03    0.31173E-05   -0.84407E-06  9416   0.123E-02    0.181E-01
DAV:   5    -0.196867414750E+03    0.12373E-06   -0.26883E-07  8880   0.265E-03    0.190E-01
DAV:   6    -0.196867390834E+03    0.23916E-04   -0.84484E-05  8432   0.493E-02    0.334E-01
DAV:   7    -0.196867389521E+03    0.13127E-05   -0.17208E-05  7824   0.187E-02    0.227E-01
DAV:   8    -0.196867389920E+03   -0.39868E-06   -0.10476E-06  9568   0.415E-03    0.291E-01
DAV:   9    -0.196867389532E+03    0.38828E-06   -0.45152E-08  5960   0.147E-03    0.274E-01
DAV:  10    -0.196867388904E+03    0.62777E-06   -0.24500E-07  6904   0.239E-03    0.233E-01
DAV:  11    -0.196867388665E+03    0.23890E-06   -0.66873E-07  8664   0.402E-03    0.168E-01
DAV:  12    -0.196867388688E+03   -0.22774E-07   -0.32975E-07  9088   0.259E-03    0.136E-01
DAV:  13    -0.196867388717E+03   -0.29453E-07   -0.10655E-08  3744   0.842E-04    0.130E-01
DAV:  14    -0.196867388642E+03    0.75466E-07   -0.18604E-08  4256   0.918E-04    0.981E-02
DAV:  15    -0.196867388623E+03    0.18761E-07   -0.12236E-08  3552   0.917E-04    0.856E-02
DAV:  16    -0.196867388557E+03    0.65957E-07   -0.24114E-08  5096   0.102E-03    0.412E-02
DAV:  17    -0.196867388533E+03    0.23880E-07   -0.75777E-09  3456   0.928E-04    0.210E-02
DAV:  18    -0.196867388514E+03    0.18768E-07   -0.97865E-09  3504   0.655E-04    0.542E-03
DAV:  19    -0.196867388510E+03    0.40345E-08   -0.45282E-09  3456   0.580E-04
  22 F= -.19686739E+03 E0= -.19686739E+03  d E =-.426007E-03
 curvature:  -1.73 expect dE=-0.131E-02 dE for cont linesearch -0.182E-06
 trial: gam= 0.73357 g(F)=  0.307E-03 g(S)=  0.448E-03 ort =-0.188E-04 (trialstep = 0.634E+00)
 search vector abs. value=  0.254E-02
 bond charge predicted
       N       E                     dE             d eps       ncg     rms          rms(c)
DAV:   1    -0.196866802312E+03    0.58620E-03   -0.35401E-01  6144   0.286E+00    0.223E-01
DAV:   2    -0.196867869394E+03   -0.10671E-02   -0.13689E-02  7824   0.567E-01    0.139E-01
DAV:   3    -0.196867828222E+03    0.41172E-04   -0.25141E-04  8776   0.784E-02    0.184E-01
DAV:   4    -0.196867818802E+03    0.94191E-05   -0.12984E-05  9192   0.167E-02    0.153E-01
DAV:   5    -0.196867780472E+03    0.38331E-04   -0.98253E-05  8640   0.526E-02    0.122E-01
DAV:   6    -0.196867781500E+03   -0.10285E-05   -0.21364E-05  9272   0.221E-02    0.138E-01
DAV:   7    -0.196867781531E+03   -0.30894E-07   -0.65073E-07  8992   0.392E-03    0.167E-01
DAV:   8    -0.196867781361E+03    0.17001E-06   -0.71366E-08  6352   0.175E-03    0.162E-01
DAV:   9    -0.196867780499E+03    0.86215E-06   -0.11244E-06  7592   0.581E-03    0.928E-02
DAV:  10    -0.196867780144E+03    0.35522E-06   -0.24049E-07  8496   0.258E-03    0.665E-02
DAV:  11    -0.196867780117E+03    0.27307E-07   -0.15041E-07  6576   0.195E-03    0.546E-02
DAV:  12    -0.196867780160E+03   -0.43594E-07   -0.15888E-08  3936   0.100E-03    0.465E-02
DAV:  13    -0.196867780357E+03   -0.19685E-06   -0.31339E-08  5328   0.144E-03    0.102E-02
DAV:  14    -0.196867780408E+03   -0.51150E-07   -0.11944E-07  6648   0.166E-03    0.311E-03
DAV:  15    -0.196867780413E+03   -0.47330E-08   -0.15513E-08  4000   0.617E-04
  23 F= -.19686778E+03 E0= -.19686778E+03  d E =-.391902E-03
 trial-energy change:   -0.000392  1 .order   -0.000390   -0.000469   -0.000310
 step:   1.6354(harm=  1.8624)  dis= 0.00434  next Energy=  -196.868034 (dE=-0.646E-03)
 bond charge predicted
       N       E                     dE             d eps       ncg     rms          rms(c)
DAV:   1    -0.196865623544E+03    0.21569E-02   -0.88500E-01  6144   0.453E+00    0.354E-01
DAV:   2    -0.196868292609E+03   -0.26691E-02   -0.34222E-02  7816   0.896E-01    0.220E-01
DAV:   3    -0.196868190194E+03    0.10242E-03   -0.63509E-04  8720   0.124E-01    0.292E-01
DAV:   4    -0.196868166539E+03    0.23655E-04   -0.32923E-05  9160   0.264E-02    0.241E-01
DAV:   5    -0.196868074802E+03    0.91737E-04   -0.24572E-04  8624   0.827E-02    0.195E-01
DAV:   6    -0.196868076698E+03   -0.18958E-05   -0.52899E-05  9256   0.348E-02    0.219E-01
DAV:   7    -0.196868076832E+03   -0.13384E-06   -0.16252E-06  9008   0.617E-03    0.265E-01
DAV:   8    -0.196868076537E+03    0.29501E-06   -0.17081E-07  7576   0.265E-03    0.257E-01
DAV:   9    -0.196868075335E+03    0.12018E-05   -0.28155E-06  7424   0.938E-03    0.135E-01
DAV:  10    -0.196868074795E+03    0.53982E-06   -0.65192E-07  8752   0.419E-03    0.960E-02
DAV:  11    -0.196868074584E+03    0.21123E-06   -0.48455E-07  7200   0.348E-03    0.767E-02
DAV:  12    -0.196868074679E+03   -0.95446E-07   -0.66483E-08  6280   0.167E-03    0.693E-02
DAV:  13    -0.196868074939E+03   -0.25917E-06   -0.10470E-07  7608   0.220E-03    0.153E-02
DAV:  14    -0.196868075024E+03   -0.85056E-07   -0.17064E-07  7232   0.194E-03    0.916E-03
DAV:  15    -0.196868075042E+03   -0.18150E-07   -0.20326E-08  4000   0.712E-04    0.504E-03
DAV:  16    -0.196868075050E+03   -0.81927E-08   -0.27626E-09  3456   0.427E-04
  24 F= -.19686808E+03 E0= -.19686808E+03  d E =-.686540E-03
 curvature:  -3.09 expect dE=-0.161E-02 dE for cont linesearch -0.894E-05
 trial: gam= 0.53603 g(F)=  0.460E-03 g(S)=  0.618E-04 ort = 0.858E-04 (trialstep = 0.834E+00)
 search vector abs. value=  0.134E-02
 bond charge predicted
       N       E                     dE             d eps       ncg     rms          rms(c)
DAV:   1    -0.196867577570E+03    0.49747E-03   -0.26173E-01  6152   0.263E+00    0.152E-01
DAV:   2    -0.196868492717E+03   -0.91515E-03   -0.10695E-02  8280   0.520E-01    0.860E-02
DAV:   3    -0.196868433466E+03    0.59250E-04   -0.15480E-04  9224   0.817E-02    0.481E-02
DAV:   4    -0.196868405693E+03    0.27774E-04   -0.37888E-05  8920   0.355E-02    0.185E-02
DAV:   5    -0.196868402906E+03    0.27864E-05   -0.10695E-05  9128   0.188E-02    0.748E-03
DAV:   6    -0.196868402700E+03    0.20652E-06   -0.17142E-06  8904   0.872E-03    0.974E-03
DAV:   7    -0.196868402647E+03    0.52431E-07   -0.14229E-07  8264   0.263E-03    0.854E-03
DAV:   8    -0.196868402510E+03    0.13760E-06   -0.28031E-07  7840   0.310E-03    0.133E-03
DAV:   9    -0.196868402522E+03   -0.12085E-07   -0.79559E-08  7264   0.215E-03    0.637E-04
DAV:  10    -0.196868402526E+03   -0.43074E-08   -0.18927E-08  4440   0.679E-04
  25 F= -.19686840E+03 E0= -.19686840E+03  d E =-.327476E-03
 trial-energy change:   -0.000327  1 .order   -0.000327   -0.000473   -0.000181
 step:   1.3514(harm=  1.3514)  dis= 0.00278  next Energy=  -196.868458 (dE=-0.383E-03)
 bond charge predicted
       N       E                     dE             d eps       ncg     rms          rms(c)
DAV:   1    -0.196868149800E+03    0.25272E-03   -0.10075E-01  6152   0.163E+00    0.939E-02
DAV:   2    -0.196868502019E+03   -0.35222E-03   -0.41135E-03  8280   0.323E-01    0.533E-02
DAV:   3    -0.196868479281E+03    0.22738E-04   -0.59731E-05  9224   0.510E-02    0.297E-02
DAV:   4    -0.196868468478E+03    0.10803E-04   -0.14698E-05  8920   0.222E-02    0.115E-02
DAV:   5    -0.196868467387E+03    0.10915E-05   -0.41321E-06  9096   0.117E-02    0.472E-03
DAV:   6    -0.196868467258E+03    0.12856E-06   -0.65988E-07  8896   0.541E-03    0.612E-03
DAV:   7    -0.196868467225E+03    0.33098E-07   -0.53206E-08  6680   0.163E-03    0.517E-03
DAV:   8    -0.196868467134E+03    0.91361E-07   -0.11457E-07  6912   0.199E-03    0.741E-04
DAV:   9    -0.196868467146E+03   -0.12933E-07   -0.29745E-08  5120   0.143E-03    0.337E-04
DAV:  10    -0.196868467151E+03   -0.44638E-08   -0.16283E-08  4296   0.644E-04
  26 F= -.19686847E+03 E0= -.19686847E+03  d E =-.392101E-03
 curvature:  -1.60 expect dE=-0.810E-03 dE for cont linesearch -0.769E-06
 trial: gam= 1.09665 g(F)=  0.446E-03 g(S)=  0.604E-04 ort = 0.254E-04 (trialstep = 0.578E+00)
 search vector abs. value=  0.218E-02
 bond charge predicted
       N       E                     dE             d eps       ncg     rms          rms(c)
DAV:   1    -0.196868274054E+03    0.19309E-03   -0.19134E-01  6240   0.229E+00    0.218E-01
DAV:   2    -0.196868770052E+03   -0.49600E-03   -0.73978E-03  7960   0.415E-01    0.103E-01
DAV:   3    -0.196868727068E+03    0.42984E-04   -0.20362E-04  9096   0.739E-02    0.144E-01
DAV:   4    -0.196868715360E+03    0.11709E-04   -0.18721E-05  8984   0.209E-02    0.955E-02
DAV:   5    -0.196868689122E+03    0.26238E-04   -0.59851E-05  8496   0.408E-02    0.990E-02
DAV:   6    -0.196868689953E+03   -0.83159E-06   -0.97204E-06  9152   0.180E-02    0.104E-01
DAV:   7    -0.196868689963E+03   -0.91713E-08   -0.37881E-07  9208   0.330E-03    0.134E-01
DAV:   8    -0.196868689715E+03    0.24799E-06   -0.18698E-07  7392   0.283E-03    0.109E-01
DAV:   9    -0.196868688926E+03    0.78861E-06   -0.74885E-07  8552   0.526E-03    0.222E-02
DAV:  10    -0.196868688818E+03    0.10818E-06   -0.12048E-07  7496   0.165E-03    0.560E-03
DAV:  11    -0.196868688888E+03   -0.69747E-07   -0.19919E-07  7328   0.239E-03    0.281E-03
DAV:  12    -0.196868688906E+03   -0.18776E-07   -0.19257E-08  4344   0.926E-04    0.438E-03
DAV:  13    -0.196868688954E+03   -0.47701E-07   -0.67165E-09  3608   0.613E-04    0.382E-03
DAV:  14    -0.196868688977E+03   -0.23025E-07   -0.76558E-09  3456   0.650E-04    0.804E-04
DAV:  15    -0.196868688986E+03   -0.84838E-08   -0.71132E-09  3456   0.585E-04
  27 F= -.19686869E+03 E0= -.19686869E+03  d E =-.221835E-03
 trial-energy change:   -0.000222  1 .order   -0.000222   -0.000309   -0.000134
 step:   1.0244(harm=  1.0244)  dis= 0.00266  next Energy=  -196.868741 (dE=-0.274E-03)
 bond charge predicted
       N       E                     dE             d eps       ncg     rms          rms(c)
DAV:   1    -0.196868490563E+03    0.19841E-03   -0.11369E-01  6224   0.176E+00    0.168E-01
DAV:   2    -0.196868785882E+03   -0.29532E-03   -0.43983E-03  7984   0.321E-01    0.795E-02
DAV:   3    -0.196868760153E+03    0.25729E-04   -0.11912E-04  9104   0.569E-02    0.111E-01
DAV:   4    -0.196868753059E+03    0.70937E-05   -0.10852E-05  8960   0.161E-02    0.732E-02
DAV:   5    -0.196868737140E+03    0.15919E-04   -0.35407E-05  8496   0.314E-02    0.763E-02
DAV:   6    -0.196868737705E+03   -0.56555E-06   -0.57272E-06  9152   0.138E-02    0.803E-02
DAV:   7    -0.196868737700E+03    0.53478E-08   -0.22257E-07  9216   0.253E-03    0.103E-01
DAV:   8    -0.196868737518E+03    0.18215E-06   -0.10684E-07  6984   0.214E-03    0.836E-02
DAV:   9    -0.196868736886E+03    0.63161E-06   -0.42320E-07  8464   0.394E-03    0.175E-02
DAV:  10    -0.196868736807E+03    0.79061E-07   -0.64673E-08  6560   0.124E-03    0.445E-03
DAV:  11    -0.196868736874E+03   -0.66579E-07   -0.11456E-07  6592   0.185E-03    0.190E-03
DAV:  12    -0.196868736888E+03   -0.14439E-07   -0.12433E-08  4008   0.738E-04    0.322E-03
DAV:  13    -0.196868736930E+03   -0.41538E-07   -0.48749E-09  3472   0.528E-04    0.298E-03
DAV:  14    -0.196868736946E+03   -0.15851E-07   -0.48616E-09  3456   0.494E-04    0.749E-04
DAV:  15    -0.196868736951E+03   -0.50495E-08   -0.36465E-09  3456   0.429E-04
  28 F= -.19686874E+03 E0= -.19686874E+03  d E =-.269800E-03
 curvature:  -2.09 expect dE=-0.101E-02 dE for cont linesearch -0.121E-06
 trial: gam= 0.95291 g(F)=  0.358E-03 g(S)=  0.124E-03 ort =-0.112E-04 (trialstep = 0.596E+00)
 search vector abs. value=  0.244E-02
 bond charge predicted
       N       E                     dE             d eps       ncg     rms          rms(c)
DAV:   1    -0.196868479860E+03    0.25709E-03   -0.22729E-01  6408   0.254E+00    0.211E-01
DAV:   2    -0.196869048944E+03   -0.56908E-03   -0.86380E-03  8088   0.437E-01    0.107E-01
DAV:   3    -0.196868998129E+03    0.50815E-04   -0.27058E-04  9160   0.758E-02    0.162E-01
DAV:   4    -0.196868994060E+03    0.40689E-05   -0.10409E-05  9192   0.168E-02    0.130E-01
DAV:   5    -0.196868957391E+03    0.36669E-04   -0.73470E-05  8240   0.453E-02    0.658E-02
DAV:   6    -0.196868957122E+03    0.26962E-06   -0.16206E-05  9384   0.244E-02    0.109E-01
DAV:   7    -0.196868957190E+03   -0.68580E-07   -0.89572E-07  8720   0.456E-03    0.134E-01
DAV:   8    -0.196868956963E+03    0.22700E-06   -0.16776E-07  7616   0.245E-03    0.133E-01
DAV:   9    -0.196868956647E+03    0.31602E-06   -0.13344E-06  8072   0.585E-03    0.785E-02
DAV:  10    -0.196868956324E+03    0.32325E-06   -0.24257E-07  8216   0.295E-03    0.681E-02
DAV:  11    -0.196868956224E+03    0.99819E-07   -0.93895E-08  7056   0.139E-03    0.439E-02
DAV:  12    -0.196868956287E+03   -0.63210E-07   -0.76849E-09  3888   0.910E-04    0.381E-02
DAV:  13    -0.196868956240E+03    0.47585E-07   -0.19686E-07  7376   0.229E-03    0.688E-03
DAV:  14    -0.196868956212E+03    0.27776E-07   -0.10464E-07  7160   0.145E-03    0.505E-03
DAV:  15    -0.196868956222E+03   -0.10150E-07   -0.36068E-09  3464   0.446E-04    0.273E-03
DAV:  16    -0.196868956216E+03    0.61918E-08   -0.66621E-09  3456   0.564E-04
  29 F= -.19686896E+03 E0= -.19686896E+03  d E =-.219265E-03
 trial-energy change:   -0.000219  1 .order   -0.000219   -0.000281   -0.000158
 step:   1.3591(harm=  1.3591)  dis= 0.00429  next Energy=  -196.869057 (dE=-0.320E-03)
 bond charge predicted
       N       E                     dE             d eps       ncg     rms          rms(c)
DAV:   1    -0.196868299017E+03    0.65720E-03   -0.37176E-01  6408   0.325E+00    0.270E-01
DAV:   2    -0.196869229945E+03   -0.93093E-03   -0.14126E-02  8072   0.559E-01    0.134E-01
DAV:   3    -0.196869145587E+03    0.84359E-04   -0.44463E-04  9168   0.975E-02    0.207E-01
DAV:   4    -0.196869140070E+03    0.55163E-05   -0.16816E-05  9184   0.214E-02    0.169E-01
DAV:   5    -0.196869081874E+03    0.58196E-04   -0.11483E-04  8240   0.566E-02    0.800E-02
DAV:   6    -0.196869080793E+03    0.10807E-05   -0.27263E-05  9560   0.316E-02    0.142E-01
DAV:   7    -0.196869080956E+03   -0.16301E-06   -0.16317E-06  8672   0.615E-03    0.163E-01
DAV:   8    -0.196869080708E+03    0.24783E-06   -0.26135E-07  8080   0.293E-03    0.176E-01
DAV:   9    -0.196869080582E+03    0.12611E-06   -0.23582E-06  8392   0.744E-03    0.170E-01
DAV:  10    -0.196869080057E+03    0.52521E-06   -0.31489E-07  8304   0.293E-03    0.178E-01
DAV:  11    -0.196869080107E+03   -0.49538E-07   -0.30784E-07  7448   0.303E-03    0.161E-01
DAV:  12    -0.196869080310E+03   -0.20310E-06   -0.95312E-08  7040   0.153E-03    0.145E-01
DAV:  13    -0.196869080125E+03    0.18498E-06   -0.10818E-07  6736   0.178E-03    0.113E-01
DAV:  14    -0.196869079816E+03    0.30916E-06   -0.58908E-07  7528   0.342E-03    0.751E-02
DAV:  15    -0.196869079688E+03    0.12789E-06   -0.37785E-07  8264   0.266E-03    0.490E-02
DAV:  16    -0.196869079668E+03    0.19529E-07   -0.13498E-07  7384   0.173E-03    0.219E-02
DAV:  17    -0.196869079688E+03   -0.20067E-07   -0.42719E-08  5456   0.103E-03    0.865E-03
DAV:  18    -0.196869079700E+03   -0.12260E-07   -0.93437E-09  3568   0.566E-04    0.227E-03
DAV:  19    -0.196869079706E+03   -0.53915E-08   -0.39637E-09  3456   0.454E-04
  30 F= -.19686908E+03 E0= -.19686908E+03  d E =-.342755E-03
 curvature:  -3.52 expect dE=-0.868E-03 dE for cont linesearch -0.804E-06
 trial: gam= 0.37173 g(F)=  0.188E-03 g(S)=  0.590E-04 ort = 0.236E-04 (trialstep = 0.749E+00)
 search vector abs. value=  0.602E-03
 bond charge predicted
       N       E                     dE             d eps       ncg     rms          rms(c)
DAV:   1    -0.196868882478E+03    0.19722E-03   -0.10518E-01  5832   0.172E+00    0.105E-01
DAV:   2    -0.196869231438E+03   -0.34896E-03   -0.41618E-03  8208   0.323E-01    0.944E-02
DAV:   3    -0.196869222609E+03    0.88282E-05   -0.75846E-05  9144   0.536E-02    0.108E-01
DAV:   4    -0.196869218992E+03    0.36172E-05   -0.59186E-06  9056   0.131E-02    0.939E-02
DAV:   5    -0.196869210522E+03    0.84700E-05   -0.12324E-05  8536   0.212E-02    0.308E-02
DAV:   6    -0.196869209319E+03    0.12029E-05   -0.96895E-06  8960   0.174E-02    0.837E-02
DAV:   7    -0.196869209402E+03   -0.82895E-07   -0.12124E-06  7936   0.501E-03    0.868E-02
DAV:   8    -0.196869209404E+03   -0.14297E-08   -0.43824E-08  5832   0.105E-03
  31 F= -.19686921E+03 E0= -.19686921E+03  d E =-.129698E-03
 trial-energy change:   -0.000130  1 .order   -0.000135   -0.000192   -0.000078
 step:   1.2668(harm=  1.2668)  dis= 0.00154  next Energy=  -196.869242 (dE=-0.162E-03)
 bond charge predicted
       N       E                     dE             d eps       ncg     rms          rms(c)
DAV:   1    -0.196869077809E+03    0.13159E-03   -0.50303E-02  5856   0.119E+00    0.156E-01
DAV:   2    -0.196869244067E+03   -0.16626E-03   -0.20075E-03  8240   0.225E-01    0.319E-02
DAV:   3    -0.196869236697E+03    0.73703E-05   -0.45743E-05  9144   0.474E-02    0.219E-02
DAV:   4    -0.196869234748E+03    0.19496E-05   -0.69098E-06  9080   0.156E-02    0.148E-02
DAV:   5    -0.196869234684E+03    0.63523E-07   -0.14508E-06  9448   0.750E-03    0.164E-02
DAV:   6    -0.196869234795E+03   -0.11118E-06   -0.56820E-07  8744   0.417E-03    0.217E-02
DAV:   7    -0.196869235062E+03   -0.26705E-06   -0.19159E-07  9312   0.291E-03    0.113E-02
DAV:   8    -0.196869235275E+03   -0.21294E-06   -0.20360E-08  4472   0.978E-04    0.254E-03
DAV:   9    -0.196869235457E+03   -0.18146E-06   -0.19346E-08  4216   0.109E-03    0.690E-03
DAV:  10    -0.196869235441E+03    0.15389E-07   -0.11612E-08  3840   0.105E-03    0.113E-03
DAV:  11    -0.196869235430E+03    0.11485E-07   -0.22005E-08  4400   0.619E-04    0.340E-03
DAV:  12    -0.196869235428E+03    0.20045E-08   -0.23008E-09  3496   0.397E-04
  32 F= -.19686924E+03 E0= -.19686924E+03  d E =-.155722E-03
 curvature:  -1.49 expect dE=-0.404E-03 dE for cont linesearch -0.945E-08
 trial: gam= 1.10669 g(F)=  0.161E-03 g(S)=  0.110E-03 ort = 0.195E-05 (trialstep = 0.507E+00)
 search vector abs. value=  0.101E-02
 bond charge predicted
       N       E                     dE             d eps       ncg     rms          rms(c)
DAV:   1    -0.196869100526E+03    0.13490E-03   -0.89229E-02  6288   0.154E+00    0.133E-01
DAV:   2    -0.196869358879E+03   -0.25835E-03   -0.33623E-03  8136   0.281E-01    0.753E-02
DAV:   3    -0.196869347897E+03    0.10982E-04   -0.73617E-05  9128   0.490E-02    0.105E-01
DAV:   4    -0.196869344798E+03    0.30991E-05   -0.53132E-06  9248   0.115E-02    0.801E-02
DAV:   5    -0.196869334429E+03    0.10368E-04   -0.23197E-05  8512   0.255E-02    0.751E-02
DAV:   6    -0.196869334839E+03   -0.40996E-06   -0.50002E-06  9288   0.132E-02    0.773E-02
DAV:   7    -0.196869334852E+03   -0.13053E-07   -0.22585E-07  9056   0.253E-03    0.907E-02
DAV:   8    -0.196869334776E+03    0.76805E-07   -0.75623E-09  4152   0.687E-04    0.923E-02
DAV:   9    -0.196869334064E+03    0.71183E-06   -0.25947E-07  8184   0.322E-03    0.897E-02
DAV:  10    -0.196869333970E+03    0.93936E-07   -0.46833E-08  5896   0.109E-03    0.871E-02
DAV:  11    -0.196869333958E+03    0.12034E-07   -0.22003E-08  4464   0.820E-04    0.803E-02
DAV:  12    -0.196869333970E+03   -0.12562E-07   -0.43765E-09  3480   0.642E-04    0.737E-02
DAV:  13    -0.196869334068E+03   -0.97240E-07   -0.20352E-08  4392   0.989E-04    0.385E-02
DAV:  14    -0.196869334118E+03   -0.50753E-07   -0.44673E-08  5424   0.113E-03    0.275E-02
DAV:  15    -0.196869334189E+03   -0.70391E-07   -0.76022E-09  3456   0.550E-04    0.177E-02
DAV:  16    -0.196869334273E+03   -0.83692E-07   -0.78114E-09  3552   0.558E-04    0.149E-03
DAV:  17    -0.196869334288E+03   -0.15520E-07   -0.47195E-09  3456   0.507E-04    0.115E-03
DAV:  18    -0.196869334289E+03   -0.14115E-08   -0.25606E-09  3456   0.364E-04
  33 F= -.19686933E+03 E0= -.19686933E+03  d E =-.988616E-04
 trial-energy change:   -0.000099  1 .order   -0.000096   -0.000138   -0.000053
 step:   0.7444(harm=  0.8213)  dis= 0.00137  next Energy=  -196.869347 (dE=-0.112E-03)
 bond charge predicted
       N       E                     dE             d eps       ncg     rms          rms(c)
DAV:   1    -0.196869299857E+03    0.34431E-04   -0.19636E-02  6304   0.725E-01    0.623E-02
DAV:   2    -0.196869356930E+03   -0.57074E-04   -0.73999E-04  8136   0.132E-01    0.357E-02
DAV:   3    -0.196869354651E+03    0.22790E-05   -0.16164E-05  9144   0.230E-02    0.498E-02
DAV:   4    -0.196869353867E+03    0.78384E-06   -0.11529E-06  9264   0.538E-03    0.382E-02
DAV:   5    -0.196869351179E+03    0.26880E-05   -0.51552E-06  8520   0.120E-02    0.357E-02
DAV:   6    -0.196869351366E+03   -0.18700E-06   -0.11213E-06  9280   0.627E-03    0.367E-02
DAV:   7    -0.196869351367E+03   -0.72396E-09   -0.43249E-08  5472   0.120E-03
  34 F= -.19686935E+03 E0= -.19686935E+03  d E =-.115939E-03
 curvature:  -1.43 expect dE=-0.113E-03 dE for cont linesearch -0.360E-05
 ZBRENT: increasing intervall
 opt :   1.2199  next Energy=  -196.869350 (dE=-0.114E-03)
 bond charge predicted
       N       E                     dE             d eps       ncg     rms          rms(c)
DAV:   1    -0.196869128762E+03    0.22260E-03   -0.78551E-02  6288   0.145E+00    0.163E-01
DAV:   2    -0.196869355913E+03   -0.22715E-03   -0.29634E-03  8136   0.263E-01    0.495E-02
DAV:   3    -0.196869344166E+03    0.11747E-04   -0.70741E-05  9152   0.488E-02    0.727E-02
DAV:   4    -0.196869340292E+03    0.38737E-05   -0.68526E-06  9080   0.129E-02    0.433E-02
DAV:   5    -0.196869335001E+03    0.52909E-05   -0.11108E-05  8520   0.175E-02    0.420E-02
DAV:   6    -0.196869335193E+03   -0.19142E-06   -0.20597E-06  9320   0.846E-03    0.463E-02
DAV:   7    -0.196869335194E+03   -0.92405E-09   -0.89533E-08  7984   0.183E-03
  35 F= -.19686934E+03 E0= -.19686934E+03  d E =-.997657E-04
 curvature:   0.69 expect dE= 0.148E-03 dE for cont linesearch  0.922E-05
 ZBRENT: bracketing found
 ZBRENT: interpolating
 opt :   0.8883  next Energy=  -196.869355 (dE=-0.120E-03)
 bond charge predicted
       N       E                     dE             d eps       ncg     rms          rms(c)
DAV:   1    -0.196869254403E+03    0.80790E-04   -0.38222E-02  6296   0.101E+00    0.575E-02
DAV:   2    -0.196869363714E+03   -0.10931E-03   -0.14401E-03  8136   0.184E-01    0.800E-02
DAV:   3    -0.196869361455E+03    0.22589E-05   -0.28097E-05  9088   0.291E-02    0.107E-01
DAV:   4    -0.196869360907E+03    0.54812E-06   -0.11801E-06  8696   0.545E-03    0.125E-01
DAV:   5    -0.196869359603E+03    0.13045E-05   -0.49100E-05  7808   0.401E-02    0.189E-01
DAV:   6    -0.196869354915E+03    0.46872E-05   -0.11846E-05  8712   0.229E-02    0.113E-01
DAV:   7    -0.196869354363E+03    0.55224E-06   -0.95875E-07  8664   0.481E-03    0.856E-02
DAV:   8    -0.196869354465E+03   -0.10157E-06   -0.92448E-08  7664   0.152E-03    0.679E-02
DAV:   9    -0.196869354243E+03    0.22216E-06   -0.15573E-06  8232   0.738E-03    0.229E-02
DAV:  10    -0.196869354431E+03   -0.18804E-06   -0.15562E-07  7304   0.167E-03    0.271E-02
DAV:  11    -0.196869354508E+03   -0.77573E-07   -0.46851E-08  5776   0.141E-03    0.400E-03
DAV:  12    -0.196869354562E+03   -0.53598E-07   -0.18434E-08  3656   0.752E-04    0.148E-03
DAV:  13    -0.196869354560E+03    0.18699E-08   -0.51221E-09  3456   0.574E-04
  36 F= -.19686935E+03 E0= -.19686935E+03  d E =-.119132E-03
 curvature:  -0.27 expect dE=-0.253E-04 dE for cont linesearch -0.831E-08
 trial: gam= 0.35697 g(F)=  0.867E-04 g(S)=  0.654E-05 ort =-0.557E-05 (trialstep = 0.583E+00)
 search vector abs. value=  0.218E-03
 bond charge predicted
       N       E                     dE             d eps       ncg     rms          rms(c)
DAV:   1    -0.196869332205E+03    0.22357E-04   -0.24966E-02  6072   0.908E-01    0.654E-02
DAV:   2    -0.196869402055E+03   -0.69851E-04   -0.10712E-03  7336   0.154E-01    0.514E-02
DAV:   3    -0.196869398827E+03    0.32280E-05   -0.36952E-05  9328   0.337E-02    0.807E-02
DAV:   4    -0.196869398908E+03   -0.80698E-07   -0.63403E-07  9216   0.460E-03    0.853E-02
DAV:   5    -0.196869393227E+03    0.56809E-05   -0.94510E-06  7232   0.193E-02    0.166E-02
DAV:   6    -0.196869392501E+03    0.72577E-06   -0.68413E-06  8888   0.125E-02    0.520E-02
DAV:   7    -0.196869392268E+03    0.23288E-06   -0.84100E-07  8808   0.534E-03    0.453E-02
DAV:   8    -0.196869392257E+03    0.11580E-07   -0.10094E-07  6776   0.134E-03    0.439E-02
DAV:   9    -0.196869392270E+03   -0.12988E-07   -0.97716E-08  7144   0.239E-03    0.251E-02
DAV:  10    -0.196869392342E+03   -0.72538E-07   -0.14359E-06  8832   0.880E-03    0.430E-02
DAV:  11    -0.196869392250E+03    0.92125E-07   -0.74223E-07  7152   0.357E-03    0.367E-02
DAV:  12    -0.196869392174E+03    0.76088E-07   -0.57995E-08  6472   0.109E-03    0.320E-02
DAV:  13    -0.196869392015E+03    0.15928E-06   -0.60028E-08  5416   0.165E-03    0.224E-02
DAV:  14    -0.196869391752E+03    0.26257E-06   -0.25513E-07  8712   0.321E-03    0.203E-03
DAV:  15    -0.196869391743E+03    0.95788E-08   -0.40210E-08  5208   0.945E-04
  37 F= -.19686939E+03 E0= -.19686939E+03  d E =-.371828E-04
 trial-energy change:   -0.000037  1 .order   -0.000036   -0.000053   -0.000020
 step:   0.8639(harm=  0.9220)  dis= 0.00058  next Energy=  -196.869397 (dE=-0.420E-04)
 bond charge predicted
       N       E                     dE             d eps       ncg     rms          rms(c)
DAV:   1    -0.196869384383E+03    0.73699E-05   -0.57933E-03  6080   0.437E-01    0.334E-02
DAV:   2    -0.196869400665E+03   -0.16282E-04   -0.24853E-04  7336   0.743E-02    0.227E-02
DAV:   3    -0.196869399925E+03    0.73961E-06   -0.86752E-06  9320   0.165E-02    0.363E-02
DAV:   4    -0.196869399912E+03    0.13224E-07   -0.15965E-07  8592   0.236E-03    0.365E-02
DAV:   5    -0.196869399967E+03   -0.55803E-07   -0.16158E-08  4768   0.137E-03    0.343E-02
DAV:   6    -0.196869400470E+03   -0.50284E-06   -0.58078E-06  8832   0.146E-02    0.790E-02
DAV:   7    -0.196869398620E+03    0.18504E-05   -0.26638E-06  9184   0.113E-02    0.580E-02
DAV:   8    -0.196869398448E+03    0.17211E-06   -0.93926E-07  8336   0.408E-03    0.436E-02
DAV:   9    -0.196869398439E+03    0.91168E-08   -0.26994E-08  4688   0.974E-04
  38 F= -.19686940E+03 E0= -.19686940E+03  d E =-.438788E-04
 curvature:  -1.07 expect dE=-0.743E-04 dE for cont linesearch -0.221E-06
 trial: gam= 0.58444 g(F)=  0.282E-04 g(S)=  0.413E-04 ort = 0.671E-05 (trialstep = 0.639E+00)
 search vector abs. value=  0.152E-03
 bond charge predicted
       N       E                     dE             d eps       ncg     rms          rms(c)
DAV:   1    -0.196869444828E+03   -0.46380E-04   -0.20067E-02  7384   0.859E-01    0.845E-02
DAV:   2    -0.196869444360E+03    0.46788E-06   -0.77171E-04  8256   0.129E-01    0.118E-01
DAV:   3    -0.196869438537E+03    0.58232E-05   -0.20372E-05  9168   0.281E-02    0.151E-01
DAV:   4    -0.196869438359E+03    0.17760E-06   -0.49302E-07  9344   0.420E-03    0.162E-01
DAV:   5    -0.196869432434E+03    0.59253E-05   -0.32170E-05  7888   0.292E-02    0.168E-01
DAV:   6    -0.196869429557E+03    0.28767E-05   -0.10185E-05  8712   0.200E-02    0.169E-01
DAV:   7    -0.196869429001E+03    0.55605E-06   -0.86421E-07  8704   0.467E-03    0.122E-01
DAV:   8    -0.196869428894E+03    0.10754E-06   -0.11671E-07  7864   0.184E-03    0.828E-02
DAV:   9    -0.196869428887E+03    0.61264E-08   -0.14233E-06  7912   0.603E-03    0.632E-02
DAV:  10    -0.196869429221E+03   -0.33381E-06   -0.21056E-07  8272   0.231E-03    0.487E-02
DAV:  11    -0.196869429389E+03   -0.16779E-06   -0.19162E-07  7840   0.242E-03    0.339E-03
DAV:  12    -0.196869429462E+03   -0.73094E-07   -0.58633E-08  5824   0.105E-03    0.956E-03
DAV:  13    -0.196869429446E+03    0.16196E-07   -0.36314E-09  3456   0.509E-04    0.518E-03
DAV:  14    -0.196869429440E+03    0.62464E-08   -0.70094E-09  3472   0.536E-04
  39 F= -.19686943E+03 E0= -.19686943E+03  d E =-.310010E-04
 trial-energy change:   -0.000031  1 .order   -0.000034   -0.000047   -0.000021
 step:   1.1438(harm=  1.1438)  dis= 0.00071  next Energy=  -196.869440 (dE=-0.420E-04)
 bond charge predicted
       N       E                     dE             d eps       ncg     rms          rms(c)
DAV:   1    -0.196869446617E+03   -0.17171E-04   -0.12506E-02  7384   0.678E-01    0.947E-02
DAV:   2    -0.196869446649E+03   -0.32880E-07   -0.48067E-04  8248   0.101E-01    0.671E-02
DAV:   3    -0.196869441021E+03    0.56281E-05   -0.14512E-05  9112   0.232E-02    0.911E-02
DAV:   4    -0.196869440563E+03    0.45841E-06   -0.78609E-07  9432   0.612E-03    0.642E-02
DAV:   5    -0.196869436965E+03    0.35978E-05   -0.94633E-06  8368   0.144E-02    0.193E-02
DAV:   6    -0.196869437243E+03   -0.27788E-06   -0.16648E-06  9160   0.685E-03    0.531E-02
DAV:   7    -0.196869437228E+03    0.14465E-07   -0.54754E-08  5368   0.138E-03    0.529E-02
DAV:   8    -0.196869437224E+03    0.42055E-08   -0.58089E-09  4008   0.567E-04
  40 F= -.19686944E+03 E0= -.19686944E+03  d E =-.387855E-04
 curvature:  -1.18 expect dE=-0.466E-04 dE for cont linesearch -0.322E-06
 trial: gam= 0.57281 g(F)=  0.301E-04 g(S)=  0.920E-05 ort = 0.643E-05 (trialstep = 0.740E+00)
 search vector abs. value=  0.965E-04
 bond charge predicted
       N       E                     dE             d eps       ncg     rms          rms(c)
DAV:   1    -0.196869398887E+03    0.38342E-04   -0.18945E-02  5960   0.785E-01    0.609E-02
DAV:   2    -0.196869463302E+03   -0.64416E-04   -0.72141E-04  8472   0.134E-01    0.339E-02
DAV:   3    -0.196869460185E+03    0.31171E-05   -0.13596E-05  9096   0.242E-02    0.227E-02
DAV:   4    -0.196869459516E+03    0.66968E-06   -0.38779E-06  8744   0.130E-02    0.451E-03
DAV:   5    -0.196869459479E+03    0.37184E-07   -0.10546E-06  8880   0.728E-03    0.257E-03
DAV:   6    -0.196869459525E+03   -0.46439E-07   -0.10593E-07  7936   0.176E-03    0.270E-03
DAV:   7    -0.196869459529E+03   -0.39799E-08   -0.11318E-08  3992   0.859E-04
  41 F= -.19686946E+03 E0= -.19686946E+03  d E =-.223047E-04
 trial-energy change:   -0.000022  1 .order   -0.000022   -0.000032   -0.000013
 step:   1.2888(harm=  1.2512)  dis= 0.00071  next Energy=  -196.869464 (dE=-0.271E-04)
 bond charge predicted
       N       E                     dE             d eps       ncg     rms          rms(c)
DAV:   1    -0.196869436711E+03    0.22814E-04   -0.10403E-02  5984   0.582E-01    0.241E-02
DAV:   2    -0.196869471849E+03   -0.35138E-04   -0.39587E-04  8472   0.991E-02    0.139E-02
DAV:   3    -0.196869470669E+03    0.11792E-05   -0.70135E-06  9040   0.162E-02    0.804E-03
DAV:   4    -0.196869469991E+03    0.67805E-06   -0.70668E-07  8856   0.539E-03    0.433E-03
DAV:   5    -0.196869469690E+03    0.30134E-06   -0.52015E-07  8624   0.467E-03    0.126E-03
DAV:   6    -0.196869469721E+03   -0.30814E-07   -0.21996E-07  9008   0.230E-03    0.146E-03
DAV:   7    -0.196869469728E+03   -0.68321E-08   -0.11763E-08  4360   0.776E-04
  42 F= -.19686947E+03 E0= -.19686947E+03  d E =-.325035E-04
 curvature:  -1.40 expect dE=-0.703E-04 dE for cont linesearch -0.170E-06
 trial: gam= 1.41537 g(F)=  0.469E-04 g(S)=  0.349E-05 ort =-0.343E-05 (trialstep = 0.351E+00)
 search vector abs. value=  0.234E-03
 bond charge predicted
       N       E                     dE             d eps       ncg     rms          rms(c)
DAV:   1    -0.196869448445E+03    0.21276E-04   -0.10330E-02  6000   0.589E-01    0.315E-02
DAV:   2    -0.196869483775E+03   -0.35330E-04   -0.40274E-04  8360   0.962E-02    0.141E-02
DAV:   3    -0.196869482526E+03    0.12491E-05   -0.74680E-06  8920   0.197E-02    0.119E-02
DAV:   4    -0.196869482233E+03    0.29312E-06   -0.52758E-07  9024   0.507E-03    0.962E-03
DAV:   5    -0.196869482042E+03    0.19066E-06   -0.48858E-07  8592   0.527E-03    0.471E-03
DAV:   6    -0.196869481988E+03    0.54133E-07   -0.24543E-07  9320   0.323E-03    0.620E-03
DAV:   7    -0.196869481997E+03   -0.93387E-08   -0.24020E-08  4464   0.998E-04
  43 F= -.19686948E+03 E0= -.19686948E+03  d E =-.122695E-04
 trial-energy change:   -0.000012  1 .order   -0.000012   -0.000016   -0.000009
 step:   0.8910(harm=  0.7795)  dis= 0.00082  next Energy=  -196.869488 (dE=-0.187E-04)
 bond charge predicted
       N       E                     dE             d eps       ncg     rms          rms(c)
DAV:   1    -0.196869407288E+03    0.74700E-04   -0.24550E-02  5992   0.908E-01    0.512E-02
DAV:   2    -0.196869491366E+03   -0.84078E-04   -0.95738E-04  8360   0.148E-01    0.226E-02
DAV:   3    -0.196869488362E+03    0.30043E-05   -0.17979E-05  8920   0.308E-02    0.167E-02
DAV:   4    -0.196869487665E+03    0.69648E-06   -0.13642E-06  9040   0.825E-03    0.133E-02
DAV:   5    -0.196869487225E+03    0.44027E-06   -0.96975E-07  8736   0.753E-03    0.687E-03
DAV:   6    -0.196869487120E+03    0.10486E-06   -0.51369E-07  9296   0.467E-03    0.869E-03
DAV:   7    -0.196869487140E+03   -0.19867E-07   -0.71905E-08  7080   0.150E-03    0.832E-03
DAV:   8    -0.196869487139E+03    0.96043E-09   -0.32116E-09  3952   0.331E-04
  44 F= -.19686949E+03 E0= -.19686949E+03  d E =-.174114E-04
 curvature:  -1.87 expect dE=-0.429E-04 dE for cont linesearch -0.203E-06
 trial: gam= 0.27214 g(F)=  0.158E-04 g(S)=  0.715E-05 ort =-0.505E-05 (trialstep = 0.459E+00)
 search vector abs. value=  0.375E-04
 reached required accuracy - stopping structural energy minimisation
 writing wavefunctions
Note: The following floating-point exceptions are signalling: IEEE_UNDERFLOW_FLAG IEEE_DENORMAL
Note: The following floating-point exceptions are signalling: IEEE_DIVIDE_BY_ZERO IEEE_UNDERFLOW_FLAG IEEE_DENORMAL
Note: The following floating-point exceptions are signalling: IEEE_UNDERFLOW_FLAG IEEE_DENORMAL
Note: The following floating-point exceptions are signalling: IEEE_UNDERFLOW_FLAG IEEE_DENORMAL
Note: The following floating-point exceptions are signalling: IEEE_UNDERFLOW_FLAG IEEE_DENORMAL
Note: The following floating-point exceptions are signalling: IEEE_DIVIDE_BY_ZERO IEEE_UNDERFLOW_FLAG IEEE_DENORMAL
Note: The following floating-point exceptions are signalling: IEEE_UNDERFLOW_FLAG IEEE_DENORMAL
Note: The following floating-point exceptions are signalling: IEEE_DIVIDE_BY_ZERO IEEE_UNDERFLOW_FLAG IEEE_DENORMAL

real	241m50,577s
user	1903m32,439s
sys	30m37,973s
/data/ozakary/5018.OUT
total 0
rm: impossible de supprimer '/data/ozakary/5018.OUT/*': Aucun fichier ou dossier de ce type
Job finished at
ven. 27 janv. 2023 15:44:12 CET
