  24  24   0   0
  0.1345023E+02  0.8002600E-09  0.5407180E-09  0.7624290E-09  0.5000000E-15
   1.0000000000000000E-004
  CAR 
 NbOF2.5(OH)0.5_W1_VASP_PBE_DFT-D3_APO   
     14.25560578    -56.75340320  301      1.26687456      1.00000000
    -56.753  0.0000E+00  0.0000E+00
    -56.517  0.0000E+00  0.0000E+00
    -56.280  0.0000E+00  0.0000E+00
    -56.043  0.0000E+00  0.0000E+00
    -55.807  0.0000E+00  0.0000E+00
    -55.570  0.0000E+00  0.0000E+00
    -55.333  0.0000E+00  0.0000E+00
    -55.097  0.0000E+00  0.0000E+00
    -54.860  0.0000E+00  0.0000E+00
    -54.623  0.0000E+00  0.0000E+00
    -54.386  0.0000E+00  0.0000E+00
    -54.150  0.0000E+00  0.0000E+00
    -53.913  0.4890E-09  0.1157E-09
    -53.676  0.4663E-03  0.1104E-03
    -53.440  0.2905E-01  0.6986E-02
    -53.203  0.4285E-02  0.8000E-02
    -52.966  0.1224E-06  0.8000E-02
    -52.730  0.8181E-16  0.8000E-02
    -52.493  0.0000E+00  0.8000E-02
    -52.256  0.0000E+00  0.8000E-02
    -52.019  0.0000E+00  0.8000E-02
    -51.783  0.0000E+00  0.8000E-02
    -51.546  0.0000E+00  0.8000E-02
    -51.309  0.0000E+00  0.8000E-02
    -51.073  0.0000E+00  0.8000E-02
    -50.836  0.0000E+00  0.8000E-02
    -50.599  0.0000E+00  0.8000E-02
    -50.363  0.0000E+00  0.8000E-02
    -50.126  0.0000E+00  0.8000E-02
    -49.889  0.0000E+00  0.8000E-02
    -49.653  0.0000E+00  0.8000E-02
    -49.416  0.0000E+00  0.8000E-02
    -49.179  0.0000E+00  0.8000E-02
    -48.942  0.0000E+00  0.8000E-02
    -48.706  0.0000E+00  0.8000E-02
    -48.469  0.0000E+00  0.8000E-02
    -48.232  0.0000E+00  0.8000E-02
    -47.996  0.1918E-12  0.8000E-02
    -47.759  0.9798E-05  0.8002E-02
    -47.522  0.1563E-01  0.1170E-01
    -47.286  0.1814E-01  0.1600E-01
    -47.049  0.1924E-04  0.1600E-01
    -46.812  0.6893E-12  0.1600E-01
    -46.575  0.0000E+00  0.1600E-01
    -46.339  0.0000E+00  0.1600E-01
    -46.102  0.0000E+00  0.1600E-01
    -45.865  0.0000E+00  0.1600E-01
    -45.629  0.0000E+00  0.1600E-01
    -45.392  0.0000E+00  0.1600E-01
    -45.155  0.0000E+00  0.1600E-01
    -44.919  0.0000E+00  0.1600E-01
    -44.682  0.0000E+00  0.1600E-01
    -44.445  0.0000E+00  0.1600E-01
    -44.208  0.0000E+00  0.1600E-01
    -43.972  0.0000E+00  0.1600E-01
    -43.735  0.0000E+00  0.1600E-01
    -43.498  0.0000E+00  0.1600E-01
    -43.262  0.0000E+00  0.1600E-01
    -43.025  0.0000E+00  0.1600E-01
    -42.788  0.0000E+00  0.1600E-01
    -42.552  0.0000E+00  0.1600E-01
    -42.315  0.0000E+00  0.1600E-01
    -42.078  0.0000E+00  0.1600E-01
    -41.842  0.0000E+00  0.1600E-01
    -41.605  0.0000E+00  0.1600E-01
    -41.368  0.0000E+00  0.1600E-01
    -41.131  0.0000E+00  0.1600E-01
    -40.895  0.0000E+00  0.1600E-01
    -40.658  0.0000E+00  0.1600E-01
    -40.421  0.0000E+00  0.1600E-01
    -40.185  0.0000E+00  0.1600E-01
    -39.948  0.0000E+00  0.1600E-01
    -39.711  0.0000E+00  0.1600E-01
    -39.475  0.0000E+00  0.1600E-01
    -39.238  0.0000E+00  0.1600E-01
    -39.001  0.0000E+00  0.1600E-01
    -38.764  0.0000E+00  0.1600E-01
    -38.528  0.0000E+00  0.1600E-01
    -38.291  0.0000E+00  0.1600E-01
    -38.054  0.0000E+00  0.1600E-01
    -37.818  0.0000E+00  0.1600E-01
    -37.581  0.0000E+00  0.1600E-01
    -37.344  0.0000E+00  0.1600E-01
    -37.108  0.0000E+00  0.1600E-01
    -36.871  0.0000E+00  0.1600E-01
    -36.634  0.0000E+00  0.1600E-01
    -36.397  0.0000E+00  0.1600E-01
    -36.161  0.0000E+00  0.1600E-01
    -35.924  0.0000E+00  0.1600E-01
    -35.687  0.0000E+00  0.1600E-01
    -35.451  0.0000E+00  0.1600E-01
    -35.214  0.0000E+00  0.1600E-01
    -34.977  0.0000E+00  0.1600E-01
    -34.741  0.0000E+00  0.1600E-01
    -34.504  0.0000E+00  0.1600E-01
    -34.267  0.0000E+00  0.1600E-01
    -34.031  0.0000E+00  0.1600E-01
    -33.794  0.0000E+00  0.1600E-01
    -33.557  0.0000E+00  0.1600E-01
    -33.320  0.0000E+00  0.1600E-01
    -33.084  0.0000E+00  0.1600E-01
    -32.847  0.0000E+00  0.1600E-01
    -32.610  0.0000E+00  0.1600E-01
    -32.374  0.0000E+00  0.1600E-01
    -32.137  0.0000E+00  0.1600E-01
    -31.900  0.0000E+00  0.1600E-01
    -31.664  0.0000E+00  0.1600E-01
    -31.427  0.0000E+00  0.1600E-01
    -31.190  0.0000E+00  0.1600E-01
    -30.953  0.0000E+00  0.1600E-01
    -30.717  0.0000E+00  0.1600E-01
    -30.480  0.0000E+00  0.1600E-01
    -30.243  0.7854E-10  0.1600E-01
    -30.007  0.2045E-03  0.1605E-01
    -29.770  0.4021E-01  0.2557E-01
    -29.533  0.5982E-01  0.3972E-01
    -29.297  0.1163E-02  0.4000E-01
    -29.060  0.4882E-08  0.4000E-01
    -28.823  0.0000E+00  0.4000E-01
    -28.586  0.0000E+00  0.4000E-01
    -28.350  0.0000E+00  0.4000E-01
    -28.113  0.0000E+00  0.4000E-01
    -27.876  0.0000E+00  0.4000E-01
    -27.640  0.0000E+00  0.4000E-01
    -27.403  0.0000E+00  0.4000E-01
    -27.166  0.0000E+00  0.4000E-01
    -26.930  0.0000E+00  0.4000E-01
    -26.693  0.0000E+00  0.4000E-01
    -26.456  0.0000E+00  0.4000E-01
    -26.220  0.0000E+00  0.4000E-01
    -25.983  0.0000E+00  0.4000E-01
    -25.746  0.0000E+00  0.4000E-01
    -25.509  0.0000E+00  0.4000E-01
    -25.273  0.0000E+00  0.4000E-01
    -25.036  0.0000E+00  0.4000E-01
    -24.799  0.0000E+00  0.4000E-01
    -24.563  0.0000E+00  0.4000E-01
    -24.326  0.0000E+00  0.4000E-01
    -24.089  0.0000E+00  0.4000E-01
    -23.853  0.0000E+00  0.4000E-01
    -23.616  0.0000E+00  0.4000E-01
    -23.379  0.0000E+00  0.4000E-01
    -23.142  0.0000E+00  0.4000E-01
    -22.906  0.0000E+00  0.4000E-01
    -22.669  0.0000E+00  0.4000E-01
    -22.432  0.0000E+00  0.4000E-01
    -22.196  0.0000E+00  0.4000E-01
    -21.959  0.0000E+00  0.4000E-01
    -21.722  0.0000E+00  0.4000E-01
    -21.486  0.0000E+00  0.4000E-01
    -21.249  0.0000E+00  0.4000E-01
    -21.012  0.0000E+00  0.4000E-01
    -20.776  0.2048E-09  0.4000E-01
    -20.539  0.1859E-03  0.4004E-01
    -20.302  0.2890E-01  0.4688E-01
    -20.065  0.3673E-01  0.5558E-01
    -19.829  0.1790E-02  0.5600E-01
    -19.592  0.1339E-02  0.5632E-01
    -19.355  0.5613E-01  0.6960E-01
    -19.119  0.4313E-01  0.7981E-01
    -18.882  0.7942E-03  0.8000E-01
    -18.645  0.4365E-08  0.8000E-01
    -18.409  0.0000E+00  0.8000E-01
    -18.172  0.0000E+00  0.8000E-01
    -17.935  0.0000E+00  0.8000E-01
    -17.698  0.0000E+00  0.8000E-01
    -17.462  0.0000E+00  0.8000E-01
    -17.225  0.0000E+00  0.8000E-01
    -16.988  0.0000E+00  0.8000E-01
    -16.752  0.0000E+00  0.8000E-01
    -16.515  0.0000E+00  0.8000E-01
    -16.278  0.0000E+00  0.8000E-01
    -16.042  0.0000E+00  0.8000E-01
    -15.805  0.2355E-09  0.8000E-01
    -15.568  0.8736E-04  0.8002E-01
    -15.331  0.6060E-02  0.8146E-01
    -15.095  0.2413E-01  0.8717E-01
    -14.858  0.2018E-01  0.9194E-01
    -14.621  0.3664E-02  0.9281E-01
    -14.385  0.5650E-02  0.9415E-01
    -14.148  0.7534E-02  0.9593E-01
    -13.911  0.3010E-03  0.9600E-01
    -13.675  0.1622E-08  0.9600E-01
    -13.438  0.0000E+00  0.9600E-01
    -13.201  0.0000E+00  0.9600E-01
    -12.965  0.0000E+00  0.9600E-01
    -12.728  0.0000E+00  0.9600E-01
    -12.491  0.0000E+00  0.9600E-01
    -12.254  0.0000E+00  0.9600E-01
    -12.018  0.0000E+00  0.9600E-01
    -11.781  0.0000E+00  0.9600E-01
    -11.544  0.0000E+00  0.9600E-01
    -11.308  0.0000E+00  0.9600E-01
    -11.071  0.0000E+00  0.9600E-01
    -10.834  0.0000E+00  0.9600E-01
    -10.598  0.0000E+00  0.9600E-01
    -10.361  0.0000E+00  0.9600E-01
    -10.124  0.0000E+00  0.9600E-01
     -9.887  0.0000E+00  0.9600E-01
     -9.651  0.0000E+00  0.9600E-01
     -9.414  0.0000E+00  0.9600E-01
     -9.177  0.0000E+00  0.9600E-01
     -8.941  0.0000E+00  0.9600E-01
     -8.704  0.0000E+00  0.9600E-01
     -8.467  0.0000E+00  0.9600E-01
     -8.231  0.0000E+00  0.9600E-01
     -7.994  0.0000E+00  0.9600E-01
     -7.757  0.0000E+00  0.9600E-01
     -7.520  0.0000E+00  0.9600E-01
     -7.284  0.0000E+00  0.9600E-01
     -7.047  0.0000E+00  0.9600E-01
     -6.810  0.0000E+00  0.9600E-01
     -6.574  0.0000E+00  0.9600E-01
     -6.337  0.0000E+00  0.9600E-01
     -6.100  0.0000E+00  0.9600E-01
     -5.864  0.0000E+00  0.9600E-01
     -5.627  0.0000E+00  0.9600E-01
     -5.390  0.0000E+00  0.9600E-01
     -5.154  0.0000E+00  0.9600E-01
     -4.917  0.0000E+00  0.9600E-01
     -4.680  0.0000E+00  0.9600E-01
     -4.443  0.0000E+00  0.9600E-01
     -4.207  0.8823E-10  0.9600E-01
     -3.970  0.8568E-04  0.9602E-01
     -3.733  0.1306E-01  0.9911E-01
     -3.497  0.1436E-01  0.1025E+00
     -3.260  0.1213E-01  0.1054E+00
     -3.023  0.1768E-01  0.1096E+00
     -2.787  0.1924E-01  0.1141E+00
     -2.550  0.3001E-01  0.1212E+00
     -2.313  0.2366E-01  0.1268E+00
     -2.076  0.2236E-01  0.1321E+00
     -1.840  0.2196E-01  0.1373E+00
     -1.603  0.9660E-02  0.1396E+00
     -1.366  0.2660E-01  0.1459E+00
     -1.130  0.3176E-01  0.1534E+00
     -0.893  0.3230E-01  0.1611E+00
     -0.656  0.3153E-01  0.1685E+00
     -0.420  0.1143E-01  0.1712E+00
     -0.183  0.1818E-01  0.1755E+00
      0.054  0.2222E-01  0.1808E+00
      0.291  0.1629E-01  0.1846E+00
      0.527  0.1301E-01  0.1877E+00
      0.764  0.1469E-01  0.1912E+00
      1.001  0.3367E-02  0.1920E+00
      1.237  0.1420E-05  0.1920E+00
      1.474  0.3659E-13  0.1920E+00
      1.711  0.0000E+00  0.1920E+00
      1.947  0.0000E+00  0.1920E+00
      2.184  0.0000E+00  0.1920E+00
      2.421  0.0000E+00  0.1920E+00
      2.657  0.0000E+00  0.1920E+00
      2.894  0.0000E+00  0.1920E+00
      3.131  0.0000E+00  0.1920E+00
      3.368  0.0000E+00  0.1920E+00
      3.604  0.9303E-17  0.1920E+00
      3.841  0.1315E-07  0.1920E+00
      4.078  0.5529E-03  0.1921E+00
      4.314  0.7153E-02  0.1938E+00
      4.551  0.8749E-02  0.1959E+00
      4.788  0.9112E-02  0.1981E+00
      5.024  0.6708E-02  0.1996E+00
      5.261  0.8423E-02  0.2016E+00
      5.498  0.1615E-01  0.2055E+00
      5.735  0.8574E-02  0.2075E+00
      5.971  0.1177E-01  0.2103E+00
      6.208  0.8729E-02  0.2123E+00
      6.445  0.1180E-01  0.2151E+00
      6.681  0.3618E-02  0.2160E+00
      6.918  0.6231E-04  0.2160E+00
      7.155  0.1424E-03  0.2160E+00
      7.391  0.5972E-03  0.2162E+00
      7.628  0.1283E-02  0.2165E+00
      7.865  0.2498E-02  0.2171E+00
      8.101  0.7531E-02  0.2189E+00
      8.338  0.9646E-02  0.2211E+00
      8.575  0.6854E-02  0.2228E+00
      8.812  0.4989E-02  0.2239E+00
      9.048  0.8827E-02  0.2260E+00
      9.285  0.6771E-02  0.2276E+00
      9.522  0.6001E-02  0.2291E+00
      9.758  0.7143E-02  0.2307E+00
      9.995  0.8217E-02  0.2327E+00
     10.232  0.7695E-02  0.2345E+00
     10.468  0.7494E-02  0.2363E+00
     10.705  0.7248E-02  0.2380E+00
     10.942  0.6462E-02  0.2395E+00
     11.179  0.1982E-02  0.2400E+00
     11.415  0.1503E-04  0.2400E+00
     11.652  0.1309E-10  0.2400E+00
     11.889  0.0000E+00  0.2400E+00
     12.125  0.0000E+00  0.2400E+00
     12.362  0.0000E+00  0.2400E+00
     12.599  0.0000E+00  0.2400E+00
     12.835  0.0000E+00  0.2400E+00
     13.072  0.0000E+00  0.2400E+00
     13.309  0.0000E+00  0.2400E+00
     13.546  0.0000E+00  0.2400E+00
     13.782  0.0000E+00  0.2400E+00
     14.019  0.0000E+00  0.2400E+00
     14.256  0.0000E+00  0.2400E+00
