       N       E                     dE             d eps       ncg     rms          rms(c)
DAV:   1     0.345923222424E+04    0.34592E+04   -0.10271E+05  5776   0.184E+03
DAV:   2     0.388485014464E+03   -0.30707E+04   -0.28356E+04  5768   0.762E+02
DAV:   3    -0.197568175619E+03   -0.58605E+03   -0.57395E+03  9000   0.342E+02
DAV:   4    -0.230221404932E+03   -0.32653E+02   -0.32399E+02  9040   0.993E+01
DAV:   5    -0.231078570810E+03   -0.85717E+00   -0.85222E+00  9216   0.164E+01    0.496E+01
DAV:   6    -0.182849727708E+03    0.48229E+02   -0.18441E+02  9736   0.793E+01    0.182E+01
DAV:   7    -0.182335918403E+03    0.51381E+00   -0.29193E+01  8448   0.280E+01    0.389E+01
DAV:   8    -0.182703419697E+03   -0.36750E+00   -0.16771E+00  9216   0.715E+00    0.500E+01
DAV:   9    -0.182314316537E+03    0.38910E+00   -0.20176E+00  9168   0.116E+01    0.229E+01
DAV:  10    -0.182050839599E+03    0.26348E+00   -0.46784E-01  9536   0.607E+00    0.242E+01
DAV:  11    -0.182037943853E+03    0.12896E-01   -0.17045E-01  8864   0.164E+00    0.190E+01
DAV:  12    -0.182053918407E+03   -0.15975E-01   -0.97998E-03  9048   0.706E-01    0.170E+01
DAV:  13    -0.182040405848E+03    0.13513E-01   -0.12562E-02  8712   0.777E-01    0.951E+00
DAV:  14    -0.182022057034E+03    0.18349E-01   -0.20243E-02  9520   0.759E-01    0.711E+00
DAV:  15    -0.182016507659E+03    0.55494E-02   -0.67704E-03  9240   0.334E-01    0.474E+00
DAV:  16    -0.182011258522E+03    0.52491E-02   -0.89190E-03  9560   0.440E-01    0.247E+00
DAV:  17    -0.182010446146E+03    0.81238E-03   -0.24837E-03  9208   0.218E-01    0.123E+00
DAV:  18    -0.182010117153E+03    0.32899E-03   -0.98229E-04  9336   0.142E-01    0.342E-01
DAV:  19    -0.182010111084E+03    0.60687E-05   -0.21826E-04  9120   0.660E-02    0.719E-02
DAV:  20    -0.182010112516E+03   -0.14315E-05   -0.66778E-06  8600   0.180E-02    0.638E-02
DAV:  21    -0.182010112267E+03    0.24862E-06   -0.80284E-06  9240   0.176E-02    0.120E-02
DAV:  22    -0.182010111866E+03    0.40164E-06   -0.10810E-06  8704   0.815E-03    0.152E-02
DAV:  23    -0.182010111744E+03    0.12165E-06   -0.18738E-07  7928   0.235E-03    0.139E-02
DAV:  24    -0.182010111730E+03    0.14414E-07   -0.81262E-08  6216   0.181E-03    0.651E-03
DAV:  25    -0.182010111715E+03    0.14708E-07   -0.21310E-08  4800   0.812E-04    0.447E-03
DAV:  26    -0.182010111735E+03   -0.20242E-07   -0.58033E-09  3944   0.589E-04    0.305E-03
DAV:  27    -0.182010111754E+03   -0.18812E-07   -0.65466E-09  3936   0.547E-04    0.112E-03
DAV:  28    -0.182010111752E+03    0.20482E-08   -0.31215E-09  3728   0.371E-04
   1 F= -.18201011E+03 E0= -.18201011E+03  d E =-.182010E+03
       N       E                     dE             d eps       ncg     rms          rms(c)
DAV:   1    -0.182694123382E+03   -0.68401E+00   -0.40498E+02  8608   0.113E+02    0.148E+01
DAV:   2    -0.182924258116E+03   -0.23013E+00   -0.15082E+01  8480   0.228E+01    0.531E+00
DAV:   3    -0.182596935950E+03    0.32732E+00   -0.72830E-01  8744   0.558E+00    0.423E+00
DAV:   4    -0.182503178854E+03    0.93757E-01   -0.17381E-01  9288   0.288E+00    0.118E+00
DAV:   5    -0.182494712758E+03    0.84661E-02   -0.27843E-02  9048   0.107E+00    0.224E+00
DAV:   6    -0.182494615256E+03    0.97502E-04   -0.26365E-03  9040   0.375E-01    0.191E+00
DAV:   7    -0.182493995825E+03    0.61943E-03   -0.13356E-03  9032   0.297E-01    0.254E-01
DAV:   8    -0.182493643186E+03    0.35264E-03   -0.14541E-03  9032   0.272E-01    0.988E-01
DAV:   9    -0.182493657344E+03   -0.14158E-04   -0.19628E-04  8920   0.806E-02    0.965E-01
DAV:  10    -0.182493670081E+03   -0.12737E-04   -0.10738E-05  9432   0.170E-02    0.111E+00
DAV:  11    -0.182493632394E+03    0.37687E-04   -0.56935E-05  9320   0.452E-02    0.645E-01
DAV:  12    -0.182493633660E+03   -0.12667E-05   -0.15950E-04  8696   0.721E-02    0.198E-01
DAV:  13    -0.182493631779E+03    0.18810E-05   -0.12013E-05  8800   0.228E-02    0.205E-01
DAV:  14    -0.182493630809E+03    0.97020E-06   -0.13745E-06  9032   0.609E-03    0.185E-01
DAV:  15    -0.182493627905E+03    0.29045E-05   -0.33230E-06  8672   0.101E-02    0.881E-02
DAV:  16    -0.182493627316E+03    0.58889E-06   -0.14593E-06  9184   0.530E-03    0.513E-02
DAV:  17    -0.182493627295E+03    0.21078E-07   -0.12009E-07  7128   0.209E-03    0.463E-02
DAV:  18    -0.182493627078E+03    0.21630E-06   -0.22823E-07  7608   0.260E-03    0.280E-02
DAV:  19    -0.182493626950E+03    0.12847E-06   -0.21477E-07  8352   0.209E-03    0.925E-03
DAV:  20    -0.182493626931E+03    0.18761E-07   -0.11351E-08  3792   0.771E-04    0.494E-03
DAV:  21    -0.182493626921E+03    0.10521E-07   -0.92975E-09  3600   0.612E-04    0.283E-03
DAV:  22    -0.182493626912E+03    0.83091E-08   -0.65715E-09  3560   0.614E-04
   2 F= -.18249363E+03 E0= -.18249363E+03  d E =-.483515E+00
       N       E                     dE             d eps       ncg     rms          rms(c)
DAV:   1    -0.182583249257E+03   -0.89622E-01   -0.30391E+01  7472   0.292E+01    0.455E+00
DAV:   2    -0.182610359714E+03   -0.27110E-01   -0.14054E+00  8464   0.710E+00    0.212E+00
DAV:   3    -0.182589905908E+03    0.20454E-01   -0.55294E-02  9144   0.157E+00    0.130E+00
DAV:   4    -0.182579269216E+03    0.10637E-01   -0.19652E-02  8992   0.970E-01    0.303E-01
DAV:   5    -0.182578825258E+03    0.44396E-03   -0.43042E-03  9168   0.438E-01    0.673E-01
DAV:   6    -0.182578848280E+03   -0.23023E-04   -0.30212E-04  9192   0.101E-01    0.631E-01
DAV:   7    -0.182578826184E+03    0.22096E-04   -0.77836E-05  9216   0.608E-02    0.329E-01
DAV:   8    -0.182578785462E+03    0.40722E-04   -0.19116E-04  9008   0.993E-02    0.202E-01
DAV:   9    -0.182578780132E+03    0.53298E-05   -0.28684E-05  9016   0.328E-02    0.128E-01
DAV:  10    -0.182578777349E+03    0.27833E-05   -0.60528E-06  9320   0.169E-02    0.529E-02
DAV:  11    -0.182578775594E+03    0.17544E-05   -0.28971E-06  9000   0.997E-03    0.624E-03
DAV:  12    -0.182578775665E+03   -0.70679E-07   -0.92757E-07  8936   0.486E-03    0.304E-03
DAV:  13    -0.182578775745E+03   -0.80363E-07   -0.14171E-07  7856   0.280E-03    0.708E-03
DAV:  14    -0.182578775519E+03    0.22665E-06   -0.10665E-07  7080   0.264E-03    0.402E-03
DAV:  15    -0.182578775574E+03   -0.55305E-07   -0.37331E-08  5456   0.132E-03    0.584E-04
DAV:  16    -0.182578775589E+03   -0.15025E-07   -0.80778E-09  3760   0.543E-04    0.385E-04
DAV:  17    -0.182578775588E+03    0.12151E-08   -0.28968E-09  3632   0.455E-04
   3 F= -.18257878E+03 E0= -.18257878E+03  d E =-.568664E+00
       N       E                     dE             d eps       ncg     rms          rms(c)
DAV:   1    -0.182566383648E+03    0.12392E-01   -0.52972E+01  6720   0.410E+01    0.673E+00
DAV:   2    -0.182696233653E+03   -0.12985E+00   -0.28372E+00  8472   0.958E+00    0.256E+00
DAV:   3    -0.182674811094E+03    0.21423E-01   -0.10381E-01  9248   0.227E+00    0.214E+00
DAV:   4    -0.182661733250E+03    0.13078E-01   -0.27336E-02  8960   0.114E+00    0.667E-01
DAV:   5    -0.182658787597E+03    0.29457E-02   -0.10098E-02  9320   0.709E-01    0.800E-01
DAV:   6    -0.182658890530E+03   -0.10293E-03   -0.12818E-03  9200   0.216E-01    0.943E-01
DAV:   7    -0.182659024552E+03   -0.13402E-03   -0.81759E-04  8792   0.171E-01    0.133E+00
DAV:   8    -0.182659031435E+03   -0.68826E-05   -0.12447E-04  8304   0.570E-02    0.132E+00
DAV:   9    -0.182658891643E+03    0.13979E-03   -0.49070E-04  8936   0.128E-01    0.338E-01
DAV:  10    -0.182658998103E+03   -0.10646E-03   -0.16076E-03  9256   0.202E-01    0.165E+00
DAV:  11    -0.182658875286E+03    0.12282E-03   -0.20483E-04  8912   0.110E-01    0.107E+00
DAV:  12    -0.182658835271E+03    0.40015E-04   -0.20264E-04  8760   0.613E-02    0.604E-01
DAV:  13    -0.182658831599E+03    0.36721E-05   -0.19442E-05  9456   0.230E-02    0.366E-01
DAV:  14    -0.182658843241E+03   -0.11641E-04   -0.84087E-05  9056   0.520E-02    0.126E-01
DAV:  15    -0.182658846213E+03   -0.29724E-05   -0.12541E-05  8704   0.165E-02    0.190E-01
DAV:  16    -0.182658844054E+03    0.21589E-05   -0.55675E-07  8768   0.448E-03    0.189E-01
DAV:  17    -0.182658834805E+03    0.92495E-05   -0.99714E-06  8568   0.159E-02    0.987E-02
DAV:  18    -0.182658832694E+03    0.21110E-05   -0.33071E-06  8880   0.716E-03    0.779E-02
DAV:  19    -0.182658832505E+03    0.18863E-06   -0.10007E-07  6904   0.168E-03    0.764E-02
DAV:  20    -0.182658831184E+03    0.13208E-05   -0.73854E-07  7992   0.395E-03    0.613E-02
DAV:  21    -0.182658829067E+03    0.21172E-05   -0.48293E-06  8424   0.998E-03    0.185E-02
DAV:  22    -0.182658828956E+03    0.11129E-06   -0.71860E-07  8888   0.354E-03    0.676E-03
DAV:  23    -0.182658828920E+03    0.36158E-07   -0.61540E-08  6144   0.113E-03    0.416E-03
DAV:  24    -0.182658828922E+03   -0.28303E-08   -0.51328E-09  3472   0.431E-04
   4 F= -.18265883E+03 E0= -.18265883E+03  d E =-.800533E-01
       N       E                     dE             d eps       ncg     rms          rms(c)
DAV:   1    -0.182661818287E+03   -0.29894E-02   -0.23397E+00  7312   0.874E+00    0.138E+00
DAV:   2    -0.182667096225E+03   -0.52779E-02   -0.11636E-01  8528   0.194E+00    0.469E-01
DAV:   3    -0.182666105343E+03    0.99088E-03   -0.43727E-03  9008   0.458E-01    0.424E-01
DAV:   4    -0.182665557664E+03    0.54768E-03   -0.10944E-03  8840   0.228E-01    0.145E-01
DAV:   5    -0.182665405147E+03    0.15252E-03   -0.45742E-04  9224   0.143E-01    0.167E-01
DAV:   6    -0.182665410010E+03   -0.48632E-05   -0.63961E-05  9064   0.471E-02    0.219E-01
DAV:   7    -0.182665407376E+03    0.26348E-05   -0.22316E-05  9240   0.272E-02    0.260E-01
DAV:   8    -0.182665407271E+03    0.10427E-06   -0.10361E-05  9240   0.246E-02    0.472E-01
DAV:   9    -0.182665437658E+03   -0.30387E-04   -0.53868E-05  9368   0.477E-02    0.113E+00
DAV:  10    -0.182665416640E+03    0.21019E-04   -0.13898E-05  8608   0.255E-02    0.812E-01
DAV:  11    -0.182665395470E+03    0.21169E-04   -0.10127E-04  8744   0.552E-02    0.471E-02
DAV:  12    -0.182665397026E+03   -0.15552E-05   -0.11239E-05  8856   0.208E-02    0.161E-01
DAV:  13    -0.182665396723E+03    0.30240E-06   -0.14086E-06  9016   0.980E-03    0.216E-02
DAV:  14    -0.182665396939E+03   -0.21617E-06   -0.13517E-06  9088   0.483E-03    0.267E-02
DAV:  15    -0.182665396936E+03    0.31614E-08   -0.52331E-07  8776   0.493E-03    0.223E-02
DAV:  16    -0.182665396985E+03   -0.48451E-07   -0.67113E-08  6360   0.197E-03    0.207E-03
DAV:  17    -0.182665396985E+03    0.72760E-11   -0.16935E-08  3904   0.702E-04
   5 F= -.18266540E+03 E0= -.18266540E+03  d E =-.866214E-01
       N       E                     dE             d eps       ncg     rms          rms(c)
DAV:   1    -0.182776061265E+03   -0.11066E+00   -0.24967E+01  7976   0.298E+01    0.518E+00
DAV:   2    -0.182750535862E+03    0.25525E-01   -0.11409E+00  8144   0.710E+00    0.226E+00
DAV:   3    -0.182725076982E+03    0.25459E-01   -0.64087E-02  8752   0.173E+00    0.214E+00
DAV:   4    -0.182711772070E+03    0.13305E-01   -0.14801E-02  8928   0.111E+00    0.687E-01
DAV:   5    -0.182708164485E+03    0.36076E-02   -0.98129E-03  9152   0.742E-01    0.705E-01
DAV:   6    -0.182708223528E+03   -0.59043E-04   -0.95510E-04  8768   0.188E-01    0.810E-01
DAV:   7    -0.182708217356E+03    0.61723E-05   -0.58307E-05  9264   0.405E-02    0.932E-01
DAV:   8    -0.182708179750E+03    0.37605E-04   -0.49699E-04  9064   0.167E-01    0.788E-01
DAV:   9    -0.182708169462E+03    0.10288E-04   -0.12566E-04  9032   0.655E-02    0.105E+00
DAV:  10    -0.182708159234E+03    0.10228E-04   -0.37681E-05  8888   0.433E-02    0.586E-01
DAV:  11    -0.182708157164E+03    0.20707E-05   -0.29202E-05  9312   0.353E-02    0.171E-01
DAV:  12    -0.182708157399E+03   -0.23569E-06   -0.92850E-06  9712   0.204E-02    0.793E-02
DAV:  13    -0.182708157307E+03    0.92066E-07   -0.10720E-06  8824   0.771E-03    0.408E-02
DAV:  14    -0.182708157351E+03   -0.43881E-07   -0.38790E-07  8976   0.336E-03    0.989E-03
DAV:  15    -0.182708157443E+03   -0.92099E-07   -0.90630E-08  6864   0.165E-03    0.816E-03
DAV:  16    -0.182708157460E+03   -0.16193E-07   -0.23730E-08  4560   0.112E-03    0.256E-03
DAV:  17    -0.182708157456E+03    0.34306E-08   -0.23477E-08  4448   0.714E-04
   6 F= -.18270816E+03 E0= -.18270816E+03  d E =-.427605E-01
       N       E                     dE             d eps       ncg     rms          rms(c)
DAV:   1    -0.182708666588E+03   -0.50913E-03   -0.12259E-01  7824   0.208E+00    0.392E-01
DAV:   2    -0.182708560824E+03    0.10576E-03   -0.57465E-03  8200   0.503E-01    0.172E-01
DAV:   3    -0.182708441490E+03    0.11933E-03   -0.31160E-04  8792   0.118E-01    0.157E-01
DAV:   4    -0.182708367155E+03    0.74335E-04   -0.81126E-05  8832   0.768E-02    0.434E-02
DAV:   5    -0.182708352620E+03    0.14535E-04   -0.43345E-05  9336   0.484E-02    0.485E-02
DAV:   6    -0.182708352789E+03   -0.16936E-06   -0.35410E-06  8816   0.112E-02    0.542E-02
DAV:   7    -0.182708352701E+03    0.88537E-07   -0.24029E-07  8624   0.253E-03    0.605E-02
DAV:   8    -0.182708352056E+03    0.64472E-06   -0.26683E-06  9024   0.127E-02    0.547E-02
DAV:   9    -0.182708350960E+03    0.10964E-05   -0.10273E-06  9128   0.661E-03    0.104E-01
DAV:  10    -0.182708350867E+03    0.92266E-07   -0.59604E-07  8800   0.616E-03    0.518E-02
DAV:  11    -0.182708350851E+03    0.16094E-07   -0.20787E-07  8480   0.268E-03    0.241E-02
DAV:  12    -0.182708350836E+03    0.15243E-07   -0.39102E-08  5464   0.163E-03    0.677E-03
DAV:  13    -0.182708350851E+03   -0.14617E-07   -0.94753E-08  7240   0.174E-03    0.879E-03
DAV:  14    -0.182708350848E+03    0.28085E-08   -0.90396E-09  3520   0.109E-03
   7 F= -.18270835E+03 E0= -.18270835E+03  d E =-.429539E-01
       N       E                     dE             d eps       ncg     rms          rms(c)
DAV:   1    -0.182703478876E+03    0.48720E-02   -0.12656E+01  6976   0.215E+01    0.268E+00
DAV:   2    -0.182733729994E+03   -0.30251E-01   -0.60301E-01  7976   0.428E+00    0.136E+00
DAV:   3    -0.182728859750E+03    0.48702E-02   -0.25166E-02  8936   0.121E+00    0.106E+00
DAV:   4    -0.182725329481E+03    0.35303E-02   -0.65306E-03  8656   0.604E-01    0.282E-01
DAV:   5    -0.182724945357E+03    0.38412E-03   -0.25047E-03  9192   0.395E-01    0.349E-01
DAV:   6    -0.182724959779E+03   -0.14423E-04   -0.29003E-04  9048   0.928E-02    0.388E-01
DAV:   7    -0.182724950306E+03    0.94730E-05   -0.79372E-05  9912   0.463E-02    0.442E-01
DAV:   8    -0.182725061109E+03   -0.11080E-03   -0.41464E-04  9224   0.105E-01    0.780E-01
DAV:   9    -0.182724959816E+03    0.10129E-03   -0.15475E-03  8840   0.245E-01    0.446E-01
DAV:  10    -0.182725065315E+03   -0.10550E-03   -0.41107E-04  9008   0.942E-02    0.700E-01
DAV:  11    -0.182724936162E+03    0.12915E-03   -0.24885E-04  8952   0.992E-02    0.255E-01
DAV:  12    -0.182724919147E+03    0.17015E-04   -0.25317E-04  9136   0.778E-02    0.616E-02
DAV:  13    -0.182724917548E+03    0.15992E-05   -0.19708E-05  8872   0.278E-02    0.647E-03
DAV:  14    -0.182724918860E+03   -0.13121E-05   -0.22771E-06  8992   0.132E-02    0.504E-02
DAV:  15    -0.182724918478E+03    0.38218E-06   -0.31850E-07  8304   0.402E-03    0.249E-02
DAV:  16    -0.182724917766E+03    0.71177E-06   -0.22552E-06  9016   0.873E-03    0.117E-02
DAV:  17    -0.182724917894E+03   -0.12789E-06   -0.25791E-07  7992   0.338E-03    0.121E-03
DAV:  18    -0.182724917920E+03   -0.25640E-07   -0.19932E-08  4136   0.669E-04    0.787E-04
DAV:  19    -0.182724917940E+03   -0.20242E-07   -0.41708E-09  3552   0.480E-04    0.213E-03
DAV:  20    -0.182724917916E+03    0.24524E-07   -0.16750E-09  3504   0.445E-04    0.467E-04
DAV:  21    -0.182724917908E+03    0.71450E-08   -0.23450E-09  3456   0.250E-04
   8 F= -.18272492E+03 E0= -.18272492E+03  d E =-.165671E-01
       N       E                     dE             d eps       ncg     rms          rms(c)
DAV:   1    -0.182724897203E+03    0.20712E-04   -0.44332E-02  6936   0.127E+00    0.158E-01
DAV:   2    -0.182725003463E+03   -0.10626E-03   -0.21115E-03  8040   0.252E-01    0.838E-02
DAV:   3    -0.182724987514E+03    0.15949E-04   -0.86683E-05  9008   0.698E-02    0.638E-02
DAV:   4    -0.182724974004E+03    0.13510E-04   -0.23040E-05  8704   0.355E-02    0.160E-02
DAV:   5    -0.182724972036E+03    0.19679E-05   -0.84333E-06  9184   0.225E-02    0.209E-02
DAV:   6    -0.182724972079E+03   -0.42939E-07   -0.96028E-07  8864   0.534E-03    0.228E-02
DAV:   7    -0.182724972055E+03    0.23734E-07   -0.28573E-07  7392   0.282E-03    0.256E-02
DAV:   8    -0.182724972644E+03   -0.58861E-06   -0.17424E-06  8376   0.653E-03    0.435E-02
DAV:   9    -0.182724971303E+03    0.13407E-05   -0.69407E-06  8896   0.156E-02    0.259E-02
DAV:  10    -0.182724971486E+03   -0.18347E-06   -0.17889E-06  8840   0.594E-03    0.395E-02
DAV:  11    -0.182724971082E+03    0.40439E-06   -0.11211E-06  8160   0.630E-03    0.148E-02
DAV:  12    -0.182724971163E+03   -0.80719E-07   -0.14319E-06  8744   0.568E-03    0.470E-03
DAV:  13    -0.182724971105E+03    0.57938E-07   -0.12179E-07  7232   0.219E-03    0.350E-04
DAV:  14    -0.182724971144E+03   -0.39443E-07   -0.61912E-09  3504   0.844E-04    0.282E-03
DAV:  15    -0.182724971154E+03   -0.99462E-08   -0.59118E-09  3456   0.472E-04
   9 F= -.18272497E+03 E0= -.18272497E+03  d E =-.166203E-01
       N       E                     dE             d eps       ncg     rms          rms(c)
DAV:   1    -0.182694272737E+03    0.30698E-01   -0.10385E+01  6552   0.192E+01    0.153E+00
DAV:   2    -0.182734892521E+03   -0.40620E-01   -0.50624E-01  8040   0.374E+00    0.596E-01
DAV:   3    -0.182733406565E+03    0.14860E-02   -0.13914E-02  9248   0.800E-01    0.417E-01
DAV:   4    -0.182731991247E+03    0.14153E-02   -0.25047E-03  9360   0.313E-01    0.165E-01
DAV:   5    -0.182731805977E+03    0.18527E-03   -0.76230E-04  9072   0.179E-01    0.786E-02
DAV:   6    -0.182731808305E+03   -0.23282E-05   -0.12845E-04  8664   0.815E-02    0.510E-02
DAV:   7    -0.182731807634E+03    0.67074E-06   -0.15315E-05  9496   0.255E-02    0.293E-02
DAV:   8    -0.182731808409E+03   -0.77433E-06   -0.72680E-06  8688   0.152E-02    0.441E-03
DAV:   9    -0.182731808445E+03   -0.36238E-07   -0.11260E-06  8888   0.765E-03    0.363E-03
DAV:  10    -0.182731808588E+03   -0.14319E-06   -0.48387E-07  8240   0.375E-03    0.227E-03
DAV:  11    -0.182731808628E+03   -0.40010E-07   -0.68879E-08  7624   0.228E-03    0.131E-03
DAV:  12    -0.182731808644E+03   -0.15454E-07   -0.11058E-07  6544   0.183E-03    0.646E-04
DAV:  13    -0.182731808649E+03   -0.49440E-08   -0.13450E-08  4640   0.801E-04
  10 F= -.18273181E+03 E0= -.18273181E+03  d E =-.683749E-02
       N       E                     dE             d eps       ncg     rms          rms(c)
DAV:   1    -0.182730950254E+03    0.85839E-03   -0.33340E-01  6552   0.343E+00    0.275E-01
DAV:   2    -0.182732259029E+03   -0.13088E-02   -0.16319E-02  8048   0.669E-01    0.107E-01
DAV:   3    -0.182732210885E+03    0.48143E-04   -0.44750E-04  9216   0.145E-01    0.748E-02
DAV:   4    -0.182732163203E+03    0.47682E-04   -0.95859E-05  9368   0.622E-02    0.257E-02
DAV:   5    -0.182732158845E+03    0.43581E-05   -0.24557E-05  9224   0.327E-02    0.155E-02
DAV:   6    -0.182732158772E+03    0.72931E-07   -0.38571E-06  8736   0.129E-02    0.997E-03
DAV:   7    -0.182732158771E+03    0.18044E-08   -0.54619E-07  9448   0.440E-03    0.544E-03
DAV:   8    -0.182732158800E+03   -0.29366E-07   -0.19916E-07  8008   0.260E-03    0.652E-04
DAV:   9    -0.182732158817E+03   -0.17575E-07   -0.27080E-08  4432   0.130E-03    0.500E-04
DAV:  10    -0.182732158814E+03    0.34124E-08   -0.13690E-08  4032   0.849E-04
  11 F= -.18273216E+03 E0= -.18273216E+03  d E =-.718766E-02
       N       E                     dE             d eps       ncg     rms          rms(c)
DAV:   1    -0.182723162099E+03    0.89967E-02   -0.42305E+00  6560   0.125E+01    0.111E+00
DAV:   2    -0.182737707191E+03   -0.14545E-01   -0.19975E-01  8192   0.241E+00    0.544E-01
DAV:   3    -0.182737228153E+03    0.47904E-03   -0.64778E-03  9056   0.547E-01    0.390E-01
DAV:   4    -0.182736837317E+03    0.39084E-03   -0.11988E-03  8864   0.239E-01    0.131E-01
DAV:   5    -0.182736745944E+03    0.91373E-04   -0.37240E-04  9352   0.109E-01    0.183E-01
DAV:   6    -0.182736748571E+03   -0.26271E-05   -0.27996E-05  9112   0.295E-02    0.197E-01
DAV:   7    -0.182736743451E+03    0.51202E-05   -0.32494E-05  9648   0.296E-02    0.221E-01
DAV:   8    -0.182736759382E+03   -0.15931E-04   -0.43229E-05  9280   0.319E-02    0.259E-01
DAV:   9    -0.182736783564E+03   -0.24182E-04   -0.30874E-05  9232   0.316E-02    0.320E-01
DAV:  10    -0.182736793939E+03   -0.10375E-04   -0.59898E-06  9464   0.142E-02    0.345E-01
DAV:  11    -0.182736801781E+03   -0.78423E-05   -0.23481E-06  9688   0.799E-03    0.374E-01
DAV:  12    -0.182736808488E+03   -0.67066E-05   -0.11531E-06  9480   0.560E-03    0.399E-01
DAV:  13    -0.182736811838E+03   -0.33495E-05   -0.29068E-07  8720   0.281E-03    0.411E-01
DAV:  14    -0.182736781112E+03    0.30726E-04   -0.21250E-05  9360   0.262E-02    0.272E-01
DAV:  15    -0.182736759912E+03    0.21200E-04   -0.29492E-05  9512   0.283E-02    0.148E-01
DAV:  16    -0.182736753000E+03    0.69116E-05   -0.12269E-05  9656   0.177E-02    0.776E-02
DAV:  17    -0.182736751471E+03    0.15289E-05   -0.22535E-06  9656   0.776E-03    0.489E-02
DAV:  18    -0.182736750785E+03    0.68672E-06   -0.16200E-06  9768   0.676E-03    0.175E-02
DAV:  19    -0.182736750679E+03    0.10552E-06   -0.48661E-07  8968   0.333E-03    0.762E-03
DAV:  20    -0.182736750674E+03    0.53114E-08   -0.22431E-08  4560   0.933E-04
  12 F= -.18273675E+03 E0= -.18273675E+03  d E =-.459186E-02
       N       E                     dE             d eps       ncg     rms          rms(c)
DAV:   1    -0.182734529988E+03    0.22207E-02   -0.82126E-01  6576   0.550E+00    0.492E-01
DAV:   2    -0.182737357657E+03   -0.28277E-02   -0.38702E-02  8192   0.106E+00    0.237E-01
DAV:   3    -0.182737261872E+03    0.95785E-04   -0.12592E-03  8992   0.241E-01    0.171E-01
DAV:   4    -0.182737187378E+03    0.74494E-04   -0.22806E-04  8848   0.104E-01    0.580E-02
DAV:   5    -0.182737171434E+03    0.15945E-04   -0.72344E-05  9360   0.478E-02    0.808E-02
DAV:   6    -0.182737171927E+03   -0.49395E-06   -0.53409E-06  9104   0.128E-02    0.872E-02
DAV:   7    -0.182737171350E+03    0.57761E-06   -0.62304E-06  9680   0.133E-02    0.985E-02
DAV:   8    -0.182737174946E+03   -0.35959E-05   -0.78388E-06  9296   0.139E-02    0.118E-01
DAV:   9    -0.182737180408E+03   -0.54619E-05   -0.63123E-06  9232   0.147E-02    0.151E-01
DAV:  10    -0.182737183218E+03   -0.28106E-05   -0.17174E-06  9576   0.749E-03    0.169E-01
DAV:  11    -0.182737185186E+03   -0.19680E-05   -0.64615E-07  9512   0.426E-03    0.186E-01
DAV:  12    -0.182737185404E+03   -0.21756E-06   -0.39194E-08  5608   0.115E-03    0.188E-01
DAV:  13    -0.182737185213E+03    0.19067E-06   -0.60873E-09  3680   0.752E-04    0.184E-01
DAV:  14    -0.182737183269E+03    0.19443E-05   -0.43320E-07  7552   0.357E-03    0.164E-01
DAV:  15    -0.182737180859E+03    0.24102E-05   -0.87162E-07  9320   0.525E-03    0.139E-01
DAV:  16    -0.182737175920E+03    0.49386E-05   -0.62932E-06  9544   0.144E-02    0.686E-02
DAV:  17    -0.182737174559E+03    0.13616E-05   -0.37125E-06  9920   0.973E-03    0.294E-02
DAV:  18    -0.182737174394E+03    0.16444E-06   -0.64434E-07  9128   0.412E-03    0.102E-02
DAV:  19    -0.182737174382E+03    0.12369E-07   -0.77892E-08  7048   0.146E-03    0.510E-03
DAV:  20    -0.182737174342E+03    0.39807E-07   -0.96263E-08  7840   0.164E-03    0.260E-03
DAV:  21    -0.182737174345E+03   -0.26339E-08   -0.17713E-08  4072   0.779E-04
  13 F= -.18273717E+03 E0= -.18273717E+03  d E =-.501553E-02
       N       E                     dE             d eps       ncg     rms          rms(c)
DAV:   1    -0.182731352723E+03    0.58216E-02   -0.26149E+00  6528   0.950E+00    0.763E-01
DAV:   2    -0.182739901048E+03   -0.85483E-02   -0.11736E-01  8112   0.189E+00    0.303E-01
DAV:   3    -0.182739351346E+03    0.54970E-03   -0.30683E-03  9352   0.382E-01    0.239E-01
DAV:   4    -0.182738913530E+03    0.43782E-03   -0.72708E-04  8952   0.199E-01    0.704E-02
DAV:   5    -0.182738878513E+03    0.35017E-04   -0.17022E-04  9024   0.100E-01    0.621E-02
DAV:   6    -0.182738877477E+03    0.10360E-05   -0.36754E-05  8960   0.344E-02    0.655E-02
DAV:   7    -0.182738877568E+03   -0.90920E-07   -0.22635E-06  9120   0.894E-03    0.589E-02
DAV:   8    -0.182738876848E+03    0.72043E-06   -0.92998E-06  8736   0.177E-02    0.138E-02
DAV:   9    -0.182738874857E+03    0.19912E-05   -0.28190E-06  9664   0.129E-02    0.149E-02
DAV:  10    -0.182738874714E+03    0.14255E-06   -0.19670E-06  8024   0.557E-03    0.110E-02
DAV:  11    -0.182738874758E+03   -0.43663E-07   -0.20579E-07  7432   0.181E-03    0.694E-03
DAV:  12    -0.182738874830E+03   -0.72803E-07   -0.22335E-08  4824   0.148E-03    0.149E-03
DAV:  13    -0.182738874862E+03   -0.31960E-07   -0.11706E-07  6904   0.189E-03    0.469E-03
DAV:  14    -0.182738874826E+03    0.36529E-07   -0.22670E-08  4400   0.111E-03    0.200E-03
DAV:  15    -0.182738874822E+03    0.42310E-08   -0.72329E-09  3552   0.586E-04
  14 F= -.18273887E+03 E0= -.18273887E+03  d E =-.170048E-02
       N       E                     dE             d eps       ncg     rms          rms(c)
DAV:   1    -0.182738832427E+03    0.42399E-04   -0.20662E-02  6576   0.844E-01    0.677E-02
DAV:   2    -0.182738899599E+03   -0.67172E-04   -0.92637E-04  8168   0.168E-01    0.273E-02
DAV:   3    -0.182738895018E+03    0.45813E-05   -0.23959E-05  9376   0.337E-02    0.214E-02
DAV:   4    -0.182738891792E+03    0.32258E-05   -0.57636E-06  8984   0.178E-02    0.613E-03
DAV:   5    -0.182738891629E+03    0.16251E-06   -0.13403E-06  9024   0.899E-03    0.545E-03
DAV:   6    -0.182738891698E+03   -0.68736E-07   -0.30783E-07  8712   0.313E-03    0.556E-03
DAV:   7    -0.182738891719E+03   -0.21366E-07   -0.14902E-08  4360   0.935E-04    0.455E-03
DAV:   8    -0.182738891904E+03   -0.18428E-06   -0.74132E-08  6464   0.147E-03    0.176E-03
DAV:   9    -0.182738891882E+03    0.21388E-07   -0.21371E-08  4320   0.134E-03    0.115E-03
DAV:  10    -0.182738891878E+03    0.41728E-08   -0.15311E-08  3688   0.672E-04
  15 F= -.18273889E+03 E0= -.18273889E+03  d E =-.171753E-02
       N       E                     dE             d eps       ncg     rms          rms(c)
DAV:   1    -0.182735903275E+03    0.29886E-02   -0.11712E+00  6424   0.641E+00    0.572E-01
DAV:   2    -0.182740072679E+03   -0.41694E-02   -0.57798E-02  8192   0.133E+00    0.219E-01
DAV:   3    -0.182739896374E+03    0.17631E-03   -0.20165E-03  9112   0.349E-01    0.178E-01
DAV:   4    -0.182739752749E+03    0.14363E-03   -0.29695E-04  8888   0.122E-01    0.935E-02
DAV:   5    -0.182739685717E+03    0.67032E-04   -0.16258E-04  9216   0.885E-02    0.624E-02
DAV:   6    -0.182739687011E+03   -0.12936E-05   -0.25719E-05  8752   0.319E-02    0.635E-02
DAV:   7    -0.182739687169E+03   -0.15872E-06   -0.12930E-06  9216   0.823E-03    0.518E-02
DAV:   8    -0.182739685071E+03    0.20982E-05   -0.60395E-06  9424   0.214E-02    0.320E-02
DAV:   9    -0.182739684784E+03    0.28689E-06   -0.28568E-06  8984   0.862E-03    0.222E-02
DAV:  10    -0.182739684795E+03   -0.11220E-07   -0.10556E-07  8000   0.182E-03    0.192E-02
DAV:  11    -0.182739684757E+03    0.38708E-07   -0.17950E-07  7840   0.292E-03    0.219E-03
DAV:  12    -0.182739684739E+03    0.17288E-07   -0.65822E-08  6096   0.134E-03    0.228E-03
DAV:  13    -0.182739684747E+03   -0.73123E-08   -0.83398E-09  4032   0.810E-04
  16 F= -.18273968E+03 E0= -.18273968E+03  d E =-.792869E-03
       N       E                     dE             d eps       ncg     rms          rms(c)
DAV:   1    -0.182739632592E+03    0.52147E-04   -0.22407E-02  6528   0.886E-01    0.793E-02
DAV:   2    -0.182739712003E+03   -0.79411E-04   -0.11082E-03  8064   0.183E-01    0.299E-02
DAV:   3    -0.182739708584E+03    0.34192E-05   -0.39114E-05  9120   0.485E-02    0.244E-02
DAV:   4    -0.182739705879E+03    0.27052E-05   -0.57425E-06  9072   0.169E-02    0.130E-02
DAV:   5    -0.182739705039E+03    0.83950E-06   -0.30483E-06  9216   0.122E-02    0.849E-03
DAV:   6    -0.182739705104E+03   -0.64829E-07   -0.48800E-07  8792   0.436E-03    0.854E-03
DAV:   7    -0.182739705119E+03   -0.14810E-07   -0.12942E-08  4312   0.111E-03    0.699E-03
DAV:   8    -0.182739705321E+03   -0.20191E-06   -0.19996E-07  7840   0.348E-03    0.530E-03
DAV:   9    -0.182739705303E+03    0.17331E-07   -0.77528E-08  6440   0.182E-03    0.314E-03
DAV:  10    -0.182739705289E+03    0.14566E-07   -0.11261E-08  4136   0.595E-04    0.207E-03
DAV:  11    -0.182739705295E+03   -0.65120E-08   -0.42974E-09  3560   0.597E-04
  17 F= -.18273971E+03 E0= -.18273971E+03  d E =-.813417E-03
       N       E                     dE             d eps       ncg     rms          rms(c)
DAV:   1    -0.182738664165E+03    0.10411E-02   -0.82660E-01  6904   0.515E+00    0.428E-01
DAV:   2    -0.182740982929E+03   -0.23188E-02   -0.36557E-02  7832   0.100E+00    0.215E-01
DAV:   3    -0.182740751581E+03    0.23135E-03   -0.10645E-03  9064   0.233E-01    0.151E-01
DAV:   4    -0.182740592347E+03    0.15923E-03   -0.32246E-04  9008   0.125E-01    0.399E-02
DAV:   5    -0.182740587241E+03    0.51061E-05   -0.72446E-05  9040   0.491E-02    0.841E-02
DAV:   6    -0.182740587674E+03   -0.43263E-06   -0.47137E-06  9080   0.127E-02    0.884E-02
DAV:   7    -0.182740586576E+03    0.10976E-05   -0.35477E-06  8992   0.955E-03    0.900E-02
DAV:   8    -0.182740590121E+03   -0.35450E-05   -0.18511E-05  8272   0.199E-02    0.991E-02
DAV:   9    -0.182740597521E+03   -0.74001E-05   -0.13102E-05  9024   0.153E-02    0.113E-01
DAV:  10    -0.182740602518E+03   -0.49971E-05   -0.25822E-06  9232   0.821E-03    0.119E-01
DAV:  11    -0.182740602867E+03   -0.34836E-06   -0.27476E-07  8240   0.282E-03    0.120E-01
DAV:  12    -0.182740603216E+03   -0.34918E-06   -0.64452E-08  6208   0.117E-03    0.125E-01
DAV:  13    -0.182740604438E+03   -0.12219E-05   -0.12541E-07  7072   0.163E-03    0.133E-01
DAV:  14    -0.182740604021E+03    0.41661E-06   -0.10619E-08  3584   0.886E-04    0.132E-01
DAV:  15    -0.182740601333E+03    0.26883E-05   -0.60887E-07  6544   0.374E-03    0.124E-01
DAV:  16    -0.182740594858E+03    0.64754E-05   -0.56020E-06  8096   0.106E-02    0.939E-02
DAV:  17    -0.182740591421E+03    0.34368E-05   -0.50386E-06  9296   0.926E-03    0.702E-02
DAV:  18    -0.182740591368E+03    0.53242E-07   -0.13118E-07  7048   0.192E-03    0.687E-02
DAV:  19    -0.182740591245E+03    0.12245E-06   -0.15564E-08  4112   0.724E-04    0.660E-02
DAV:  20    -0.182740589582E+03    0.16636E-05   -0.33831E-06  8064   0.797E-03    0.289E-02
DAV:  21    -0.182740589347E+03    0.23494E-06   -0.26072E-06  9312   0.641E-03    0.723E-03
DAV:  22    -0.182740589397E+03   -0.50339E-07   -0.10848E-07  7192   0.164E-03    0.542E-03
DAV:  23    -0.182740589415E+03   -0.17830E-07   -0.23501E-08  4632   0.106E-03    0.294E-03
DAV:  24    -0.182740589419E+03   -0.45220E-08   -0.56449E-08  6264   0.115E-03
  18 F= -.18274059E+03 E0= -.18274059E+03  d E =-.884124E-03
       N       E                     dE             d eps       ncg     rms          rms(c)
DAV:   1    -0.182739588078E+03    0.10013E-02   -0.53545E-01  6912   0.415E+00    0.346E-01
DAV:   2    -0.182741087717E+03   -0.14996E-02   -0.23658E-02  7864   0.805E-01    0.173E-01
DAV:   3    -0.182740936669E+03    0.15105E-03   -0.68531E-04  9096   0.186E-01    0.121E-01
DAV:   4    -0.182740833690E+03    0.10298E-03   -0.20787E-04  9008   0.101E-01    0.323E-02
DAV:   5    -0.182740830921E+03    0.27685E-05   -0.46477E-05  9048   0.394E-02    0.678E-02
DAV:   6    -0.182740831208E+03   -0.28688E-06   -0.30002E-06  9072   0.101E-02    0.716E-02
DAV:   7    -0.182740830517E+03    0.69083E-06   -0.28942E-06  8984   0.865E-03    0.722E-02
DAV:   8    -0.182740833024E+03   -0.25070E-05   -0.11016E-05  8184   0.152E-02    0.738E-02
DAV:   9    -0.182740836046E+03   -0.30216E-05   -0.44095E-06  8984   0.954E-03    0.742E-02
DAV:  10    -0.182740837370E+03   -0.13245E-05   -0.48857E-07  9000   0.411E-03    0.718E-02
DAV:  11    -0.182740837054E+03    0.31594E-06   -0.52002E-08  5816   0.165E-03    0.696E-02
DAV:  12    -0.182740836091E+03    0.96387E-06   -0.28587E-07  6632   0.275E-03    0.650E-02
DAV:  13    -0.182740835783E+03    0.30715E-06   -0.10857E-07  6784   0.135E-03    0.637E-02
DAV:  14    -0.182740835828E+03   -0.44172E-07   -0.34211E-09  3456   0.494E-04    0.632E-02
DAV:  15    -0.182740835611E+03    0.21688E-06   -0.22826E-08  4288   0.787E-04    0.585E-02
DAV:  16    -0.182740835017E+03    0.59403E-06   -0.17360E-07  6680   0.188E-03    0.531E-02
DAV:  17    -0.182740834233E+03    0.78326E-06   -0.41622E-07  7328   0.286E-03    0.453E-02
DAV:  18    -0.182740833073E+03    0.11608E-05   -0.17515E-06  8000   0.606E-03    0.275E-02
DAV:  19    -0.182740832819E+03    0.25316E-06   -0.83005E-07  8200   0.359E-03    0.195E-02
DAV:  20    -0.182740832791E+03    0.28798E-07   -0.74846E-08  5976   0.135E-03    0.152E-02
DAV:  21    -0.182740832765E+03    0.25691E-07   -0.97364E-08  6944   0.132E-03    0.104E-02
DAV:  22    -0.182740832813E+03   -0.48240E-07   -0.18845E-07  6920   0.191E-03    0.180E-03
DAV:  23    -0.182740832843E+03   -0.29668E-07   -0.45159E-08  5520   0.103E-03    0.767E-04
DAV:  24    -0.182740832852E+03   -0.89676E-08   -0.61042E-09  3432   0.534E-04
  19 F= -.18274083E+03 E0= -.18274083E+03  d E =-.112756E-02
       N       E                     dE             d eps       ncg     rms          rms(c)
DAV:   1    -0.182739527571E+03    0.13053E-02   -0.80146E-01  7144   0.500E+00    0.723E-01
DAV:   2    -0.182741589772E+03   -0.20622E-02   -0.36567E-02  7792   0.102E+00    0.310E-01
DAV:   3    -0.182741381929E+03    0.20784E-03   -0.11319E-03  8680   0.211E-01    0.263E-01
DAV:   4    -0.182741217772E+03    0.16416E-03   -0.30696E-04  8984   0.120E-01    0.318E-02
DAV:   5    -0.182741215148E+03    0.26237E-05   -0.70042E-05  8816   0.446E-02    0.107E-01
DAV:   6    -0.182741215485E+03   -0.33692E-06   -0.29520E-06  9168   0.102E-02    0.123E-01
DAV:   7    -0.182741212581E+03    0.29035E-05   -0.79259E-06  8832   0.147E-02    0.115E-01
DAV:   8    -0.182741211181E+03    0.14003E-05   -0.14422E-06  8608   0.668E-03    0.996E-02
DAV:   9    -0.182741210351E+03    0.82986E-06   -0.51656E-07  9240   0.395E-03    0.883E-02
DAV:  10    -0.182741210339E+03    0.12144E-07   -0.50619E-08  5928   0.205E-03    0.784E-02
DAV:  11    -0.182741210310E+03    0.29559E-07   -0.33323E-08  5272   0.165E-03    0.619E-02
DAV:  12    -0.182741210282E+03    0.27816E-07   -0.16289E-07  6952   0.173E-03    0.506E-02
DAV:  13    -0.182741210290E+03   -0.85274E-08   -0.26974E-08  4216   0.855E-04
  20 F= -.18274121E+03 E0= -.18274121E+03  d E =-.377439E-03
       N       E                     dE             d eps       ncg     rms          rms(c)
DAV:   1    -0.182741168554E+03    0.41728E-04   -0.22951E-02  7112   0.845E-01    0.106E-01
DAV:   2    -0.182741225084E+03   -0.56530E-04   -0.10510E-03  7856   0.173E-01    0.647E-02
DAV:   3    -0.182741219628E+03    0.54560E-05   -0.31567E-05  8704   0.348E-02    0.561E-02
DAV:   4    -0.182741215597E+03    0.40306E-05   -0.10346E-05  8896   0.227E-02    0.521E-03
DAV:   5    -0.182741216000E+03   -0.40262E-06   -0.24717E-06  8952   0.822E-03    0.198E-02
DAV:   6    -0.182741215997E+03    0.32305E-08   -0.11617E-07  8352   0.198E-03    0.202E-02
DAV:   7    -0.182741216070E+03   -0.73636E-07   -0.64439E-08  5992   0.140E-03    0.268E-02
DAV:   8    -0.182741216134E+03   -0.64061E-07   -0.63405E-08  5888   0.182E-03    0.734E-03
DAV:   9    -0.182741216663E+03   -0.52883E-06   -0.36130E-07  8064   0.333E-03    0.288E-02
DAV:  10    -0.182741216645E+03    0.18128E-07   -0.64222E-08  6240   0.192E-03    0.169E-02
DAV:  11    -0.182741216672E+03   -0.27332E-07   -0.15298E-07  6320   0.176E-03    0.431E-03
DAV:  12    -0.182741216673E+03   -0.10114E-08   -0.19018E-08  3960   0.109E-03
  21 F= -.18274122E+03 E0= -.18274122E+03  d E =-.383822E-03
       N       E                     dE             d eps       ncg     rms          rms(c)
DAV:   1    -0.182739835051E+03    0.13816E-02   -0.55497E-01  6312   0.373E+00    0.153E-01
DAV:   2    -0.182741585278E+03   -0.17502E-02   -0.19156E-02  8392   0.754E-01    0.762E-02
DAV:   3    -0.182741547300E+03    0.37978E-04   -0.34092E-04  9176   0.128E-01    0.560E-02
DAV:   4    -0.182741511812E+03    0.35487E-04   -0.50711E-05  8992   0.470E-02    0.293E-02
DAV:   5    -0.182741498717E+03    0.13095E-04   -0.39080E-05  9024   0.337E-02    0.177E-02
DAV:   6    -0.182741499166E+03   -0.44949E-06   -0.92420E-06  8720   0.152E-02    0.118E-02
DAV:   7    -0.182741498833E+03    0.33309E-06   -0.70120E-07  8792   0.458E-03    0.699E-03
DAV:   8    -0.182741498506E+03    0.32725E-06   -0.51122E-07  9200   0.503E-03    0.128E-03
DAV:   9    -0.182741498521E+03   -0.14876E-07   -0.17430E-07  7608   0.200E-03    0.168E-03
DAV:  10    -0.182741498549E+03   -0.28176E-07   -0.25436E-08  4792   0.816E-04    0.115E-03
DAV:  11    -0.182741498599E+03   -0.49502E-07   -0.13796E-08  3888   0.997E-04    0.209E-04
DAV:  12    -0.182741498602E+03   -0.33469E-08   -0.11607E-08  3776   0.767E-04
  22 F= -.18274150E+03 E0= -.18274150E+03  d E =-.281929E-03
       N       E                     dE             d eps       ncg     rms          rms(c)
DAV:   1    -0.182741484359E+03    0.14240E-04   -0.56185E-03  6352   0.376E-01    0.153E-02
DAV:   2    -0.182741502132E+03   -0.17774E-04   -0.19386E-04  8392   0.759E-02    0.766E-03
DAV:   3    -0.182741501736E+03    0.39648E-06   -0.34422E-06  9192   0.129E-02    0.569E-03
DAV:   4    -0.182741501416E+03    0.31946E-06   -0.51619E-07  8944   0.469E-03    0.294E-03
DAV:   5    -0.182741501201E+03    0.21504E-06   -0.39707E-07  8656   0.339E-03    0.177E-03
DAV:   6    -0.182741501201E+03    0.48749E-09   -0.93483E-08  7048   0.156E-03
  23 F= -.18274150E+03 E0= -.18274150E+03  d E =-.284527E-03
       N       E                     dE             d eps       ncg     rms          rms(c)
DAV:   1    -0.182741790458E+03   -0.28926E-03   -0.36605E-01  6992   0.368E+00    0.473E-01
DAV:   2    -0.182741921554E+03   -0.13110E-03   -0.15729E-02  8040   0.750E-01    0.252E-01
DAV:   3    -0.182741771235E+03    0.15032E-03   -0.66154E-04  9024   0.171E-01    0.205E-01
DAV:   4    -0.182741678553E+03    0.92682E-04   -0.22453E-04  9128   0.131E-01    0.405E-02
DAV:   5    -0.182741670011E+03    0.85421E-05   -0.56411E-05  9064   0.473E-02    0.109E-01
DAV:   6    -0.182741670096E+03   -0.85649E-07   -0.36310E-06  9080   0.112E-02    0.119E-01
DAV:   7    -0.182741670826E+03   -0.72931E-06   -0.26261E-05  8848   0.238E-02    0.147E-01
DAV:   8    -0.182741673728E+03   -0.29028E-05   -0.54207E-06  9048   0.140E-02    0.188E-01
DAV:   9    -0.182741677672E+03   -0.39433E-05   -0.31035E-06  8816   0.837E-03    0.290E-01
DAV:  10    -0.182741699171E+03   -0.21500E-04   -0.34908E-05  9384   0.353E-02    0.621E-01
DAV:  11    -0.182741690986E+03    0.81857E-05   -0.50093E-06  8880   0.148E-02    0.523E-01
DAV:  12    -0.182741678994E+03    0.11992E-04   -0.16979E-05  8976   0.217E-02    0.335E-01
DAV:  13    -0.182741674668E+03    0.43261E-05   -0.95899E-06  9560   0.164E-02    0.184E-01
DAV:  14    -0.182741673424E+03    0.12439E-05   -0.30378E-06  9344   0.933E-03    0.869E-02
DAV:  15    -0.182741673201E+03    0.22292E-06   -0.10485E-06  9168   0.537E-03    0.272E-02
DAV:  16    -0.182741673186E+03    0.15229E-07   -0.15344E-07  8040   0.198E-03    0.645E-03
DAV:  17    -0.182741673116E+03    0.69962E-07   -0.32939E-08  5192   0.981E-04    0.943E-04
DAV:  18    -0.182741673092E+03    0.23112E-07   -0.78915E-09  3712   0.667E-04    0.483E-04
DAV:  19    -0.182741673088E+03    0.46821E-08   -0.36233E-09  3504   0.497E-04
  24 F= -.18274167E+03 E0= -.18274167E+03  d E =-.171887E-03
       N       E                     dE             d eps       ncg     rms          rms(c)
DAV:   1    -0.182741674087E+03   -0.99456E-06   -0.69007E-04  7048   0.160E-01    0.206E-02
DAV:   2    -0.182741674664E+03   -0.57711E-06   -0.29514E-05  8008   0.325E-02    0.109E-02
DAV:   3    -0.182741674407E+03    0.25737E-06   -0.12626E-06  9016   0.745E-03    0.887E-03
DAV:   4    -0.182741674066E+03    0.34099E-06   -0.42137E-07  9128   0.569E-03    0.175E-03
DAV:   5    -0.182741673945E+03    0.12043E-06   -0.10683E-07  8424   0.207E-03    0.464E-03
DAV:   6    -0.182741673943E+03    0.20700E-08   -0.48057E-09  3464   0.522E-04
  25 F= -.18274167E+03 E0= -.18274167E+03  d E =-.172742E-03
       N       E                     dE             d eps       ncg     rms          rms(c)
DAV:   1    -0.182740728582E+03    0.94536E-03   -0.32660E-01  6456   0.343E+00    0.203E-01
DAV:   2    -0.182741915257E+03   -0.11867E-02   -0.13796E-02  8088   0.600E-01    0.812E-02
DAV:   3    -0.182741892710E+03    0.22547E-04   -0.33400E-04  9176   0.131E-01    0.545E-02
DAV:   4    -0.182741866885E+03    0.25826E-04   -0.68220E-05  9200   0.575E-02    0.153E-02
DAV:   5    -0.182741865729E+03    0.11555E-05   -0.15548E-05  9184   0.271E-02    0.182E-02
DAV:   6    -0.182741865676E+03    0.53034E-07   -0.20310E-06  9008   0.812E-03    0.152E-02
DAV:   7    -0.182741865936E+03   -0.26025E-06   -0.19428E-07  8856   0.319E-03    0.946E-03
DAV:   8    -0.182741866000E+03   -0.63668E-07   -0.26151E-07  9336   0.374E-03    0.341E-03
DAV:   9    -0.182741865983E+03    0.17004E-07   -0.15913E-07  7408   0.175E-03    0.282E-03
DAV:  10    -0.182741865982E+03    0.11860E-08   -0.50519E-09  3752   0.535E-04
  26 F= -.18274187E+03 E0= -.18274187E+03  d E =-.192039E-03
       N       E                     dE             d eps       ncg     rms          rms(c)
DAV:   1    -0.182741735571E+03    0.13041E-03   -0.43448E-02  6456   0.125E+00    0.739E-02
DAV:   2    -0.182741892625E+03   -0.15705E-03   -0.18348E-03  8112   0.219E-01    0.290E-02
DAV:   3    -0.182741889644E+03    0.29815E-05   -0.44677E-05  9112   0.480E-02    0.195E-02
DAV:   4    -0.182741886128E+03    0.35155E-05   -0.93237E-06  9200   0.212E-02    0.582E-03
DAV:   5    -0.182741886067E+03    0.61606E-07   -0.21085E-06  9184   0.995E-03    0.680E-03
DAV:   6    -0.182741886060E+03    0.66320E-08   -0.27805E-07  8776   0.299E-03    0.578E-03
DAV:   7    -0.182741886134E+03   -0.74266E-07   -0.13724E-08  4072   0.118E-03    0.381E-03
DAV:   8    -0.182741886187E+03   -0.52525E-07   -0.45435E-08  5680   0.164E-03    0.144E-03
DAV:   9    -0.182741886179E+03    0.73996E-08   -0.39684E-08  4968   0.116E-03
  27 F= -.18274189E+03 E0= -.18274189E+03  d E =-.212236E-03
       N       E                     dE             d eps       ncg     rms          rms(c)
DAV:   1    -0.182740726303E+03    0.11599E-02   -0.38878E-01  6392   0.359E+00    0.247E-01
DAV:   2    -0.182742052840E+03   -0.13265E-02   -0.14982E-02  7960   0.626E-01    0.110E-01
DAV:   3    -0.182742030854E+03    0.21986E-04   -0.34629E-04  8904   0.121E-01    0.930E-02
DAV:   4    -0.182742001515E+03    0.29340E-04   -0.72677E-05  9104   0.628E-02    0.236E-02
DAV:   5    -0.182741999255E+03    0.22599E-05   -0.22546E-05  8976   0.284E-02    0.296E-02
DAV:   6    -0.182741999069E+03    0.18562E-06   -0.32948E-06  8992   0.103E-02    0.293E-02
DAV:   7    -0.182741999202E+03   -0.13248E-06   -0.13423E-07  8328   0.227E-03    0.280E-02
DAV:   8    -0.182742001776E+03   -0.25740E-05   -0.36073E-06  9104   0.121E-02    0.159E-02
DAV:   9    -0.182742000624E+03    0.11520E-05   -0.26085E-06  9224   0.108E-02    0.285E-02
DAV:  10    -0.182742000088E+03    0.53556E-06   -0.25122E-06  8016   0.683E-03    0.174E-02
DAV:  11    -0.182742000050E+03    0.38257E-07   -0.16411E-07  7008   0.189E-03    0.126E-02
DAV:  12    -0.182741999858E+03    0.19174E-06   -0.10018E-07  7048   0.201E-03    0.157E-03
DAV:  13    -0.182741999840E+03    0.17844E-07   -0.65044E-08  6240   0.131E-03    0.271E-03
DAV:  14    -0.182741999859E+03   -0.18616E-07   -0.87993E-09  3696   0.596E-04    0.545E-04
DAV:  15    -0.182741999865E+03   -0.58899E-08   -0.44395E-09  3480   0.463E-04
  28 F= -.18274200E+03 E0= -.18274200E+03  d E =-.113685E-03
       N       E                     dE             d eps       ncg     rms          rms(c)
DAV:   1    -0.182741987892E+03    0.11966E-04   -0.48226E-03  6464   0.400E-01    0.277E-02
DAV:   2    -0.182742004568E+03   -0.16676E-04   -0.18574E-04  7944   0.694E-02    0.120E-02
DAV:   3    -0.182742004389E+03    0.17943E-06   -0.44086E-06  9048   0.137E-02    0.101E-02
DAV:   4    -0.182742003969E+03    0.41929E-06   -0.86572E-07  9128   0.684E-03    0.265E-03
DAV:   5    -0.182742003806E+03    0.16368E-06   -0.27641E-07  8944   0.313E-03    0.326E-03
DAV:   6    -0.182742003799E+03    0.66320E-08   -0.33981E-08  5192   0.113E-03
  29 F= -.18274200E+03 E0= -.18274200E+03  d E =-.117620E-03
       N       E                     dE             d eps       ncg     rms          rms(c)
DAV:   1    -0.182741977938E+03    0.25867E-04   -0.52813E-02  6920   0.136E+00    0.168E-01
DAV:   2    -0.182742056937E+03   -0.78999E-04   -0.21621E-03  8048   0.258E-01    0.845E-02
DAV:   3    -0.182742043863E+03    0.13074E-04   -0.81294E-05  8856   0.620E-02    0.721E-02
DAV:   4    -0.182742037213E+03    0.66500E-05   -0.20744E-05  8456   0.387E-02    0.148E-02
DAV:   5    -0.182742036783E+03    0.43022E-06   -0.67013E-06  9208   0.164E-02    0.319E-02
DAV:   6    -0.182742036745E+03    0.38250E-07   -0.46525E-07  8672   0.359E-03    0.340E-02
DAV:   7    -0.182742036744E+03    0.16371E-09   -0.14572E-07  7040   0.186E-03    0.401E-02
DAV:   8    -0.182742036720E+03    0.24789E-07   -0.19004E-07  8528   0.367E-03    0.789E-02
DAV:   9    -0.182742037843E+03   -0.11236E-05   -0.15544E-06  8848   0.115E-02    0.771E-02
DAV:  10    -0.182742038096E+03   -0.25320E-06   -0.27471E-07  8024   0.272E-03    0.601E-02
DAV:  11    -0.182742038074E+03    0.22672E-07   -0.70933E-09  3920   0.979E-04    0.495E-02
DAV:  12    -0.182742038025E+03    0.48782E-07   -0.11799E-07  8208   0.263E-03    0.187E-02
DAV:  13    -0.182742038021E+03    0.37362E-08   -0.32089E-08  5160   0.130E-03
  30 F= -.18274204E+03 E0= -.18274204E+03  d E =-.342222E-04
       N       E                     dE             d eps       ncg     rms          rms(c)
DAV:   1    -0.182742025736E+03    0.12289E-04   -0.10655E-02  6952   0.613E-01    0.778E-02
DAV:   2    -0.182742041103E+03   -0.15366E-04   -0.43566E-04  8048   0.116E-01    0.362E-02
DAV:   3    -0.182742038323E+03    0.27796E-05   -0.16668E-05  8856   0.282E-02    0.307E-02
DAV:   4    -0.182742037339E+03    0.98361E-06   -0.40449E-06  8488   0.171E-02    0.635E-03
DAV:   5    -0.182742037473E+03   -0.13357E-06   -0.12796E-06  9208   0.718E-03    0.141E-02
DAV:   6    -0.182742037473E+03    0.26557E-09   -0.78609E-08  6912   0.153E-03
  31 F= -.18274204E+03 E0= -.18274204E+03  d E =-.336737E-04
       N       E                     dE             d eps       ncg     rms          rms(c)
DAV:   1    -0.182742001567E+03    0.35906E-04   -0.21567E-02  6384   0.794E-01    0.434E-02
DAV:   2    -0.182742071464E+03   -0.69897E-04   -0.79951E-04  7952   0.150E-01    0.216E-02
DAV:   3    -0.182742069803E+03    0.16606E-05   -0.15473E-05  9296   0.277E-02    0.166E-02
DAV:   4    -0.182742068005E+03    0.17986E-05   -0.28933E-06  9360   0.117E-02    0.477E-03
DAV:   5    -0.182742068072E+03   -0.66906E-07   -0.10032E-06  9096   0.686E-03    0.235E-03
DAV:   6    -0.182742068042E+03    0.29304E-07   -0.68611E-08  7224   0.220E-03    0.949E-04
DAV:   7    -0.182742068041E+03    0.12515E-08   -0.95405E-09  3992   0.704E-04
  32 F= -.18274207E+03 E0= -.18274207E+03  d E =-.305683E-04
       N       E                     dE             d eps       ncg     rms          rms(c)
DAV:   1    -0.182742020603E+03    0.47440E-04   -0.21420E-02  6384   0.791E-01    0.473E-02
DAV:   2    -0.182742089913E+03   -0.69311E-04   -0.79321E-04  7976   0.149E-01    0.173E-02
DAV:   3    -0.182742087942E+03    0.19708E-05   -0.15440E-05  9288   0.280E-02    0.123E-02
DAV:   4    -0.182742086248E+03    0.16940E-05   -0.23118E-06  9408   0.105E-02    0.398E-03
DAV:   5    -0.182742086202E+03    0.46253E-07   -0.80525E-07  9200   0.625E-03    0.169E-03
DAV:   6    -0.182742086169E+03    0.33018E-07   -0.59136E-08  6888   0.199E-03    0.802E-04
DAV:   7    -0.182742086169E+03   -0.41109E-09   -0.71189E-09  3976   0.597E-04
  33 F= -.18274209E+03 E0= -.18274209E+03  d E =-.486967E-04
       N       E                     dE             d eps       ncg     rms          rms(c)
DAV:   1    -0.182741832454E+03    0.25371E-03   -0.85652E-02  6384   0.158E+00    0.945E-02
DAV:   2    -0.182742109882E+03   -0.27743E-03   -0.31703E-03  7976   0.298E-01    0.346E-02
DAV:   3    -0.182742102113E+03    0.77682E-05   -0.61670E-05  9272   0.560E-02    0.246E-02
DAV:   4    -0.182742095481E+03    0.66325E-05   -0.92212E-06  9408   0.209E-02    0.790E-03
DAV:   5    -0.182742095250E+03    0.23051E-06   -0.31975E-06  9192   0.124E-02    0.337E-03
DAV:   6    -0.182742095183E+03    0.67248E-07   -0.24471E-07  8496   0.397E-03    0.173E-03
DAV:   7    -0.182742095190E+03   -0.70504E-08   -0.19025E-08  4072   0.914E-04
  34 F= -.18274210E+03 E0= -.18274210E+03  d E =-.577174E-04
       N       E                     dE             d eps       ncg     rms          rms(c)
DAV:   1    -0.182742070237E+03    0.24947E-04   -0.86324E-03  6384   0.502E-01    0.300E-02
DAV:   2    -0.182742098316E+03   -0.28079E-04   -0.31902E-04  7984   0.947E-02    0.110E-02
DAV:   3    -0.182742097570E+03    0.74567E-06   -0.62098E-06  9296   0.178E-02    0.786E-03
DAV:   4    -0.182742096958E+03    0.61226E-06   -0.92531E-07  9408   0.666E-03    0.255E-03
DAV:   5    -0.182742096911E+03    0.46828E-07   -0.32397E-07  9192   0.398E-03    0.107E-03
DAV:   6    -0.182742096930E+03   -0.19121E-07   -0.15491E-08  3992   0.126E-03    0.497E-04
DAV:   7    -0.182742096929E+03    0.10696E-08   -0.84940E-09  3640   0.650E-04
  35 F= -.18274210E+03 E0= -.18274210E+03  d E =-.594565E-04
       N       E                     dE             d eps       ncg     rms          rms(c)
DAV:   1    -0.182741974015E+03    0.12292E-03   -0.45950E-02  6360   0.116E+00    0.556E-02
DAV:   2    -0.182742130345E+03   -0.15633E-03   -0.16717E-03  8064   0.214E-01    0.259E-02
DAV:   3    -0.182742129297E+03    0.10474E-05   -0.31183E-05  8832   0.384E-02    0.198E-02
DAV:   4    -0.182742127518E+03    0.17794E-05   -0.37875E-06  9208   0.146E-02    0.888E-03
DAV:   5    -0.182742126750E+03    0.76750E-06   -0.24509E-06  9256   0.105E-02    0.633E-03
DAV:   6    -0.182742126738E+03    0.11820E-07   -0.29672E-07  8608   0.301E-03    0.594E-03
DAV:   7    -0.182742126749E+03   -0.10863E-07   -0.64493E-09  3992   0.584E-04    0.625E-03
DAV:   8    -0.182742126499E+03    0.25077E-06   -0.15730E-07  6648   0.234E-03    0.148E-03
DAV:   9    -0.182742126469E+03    0.29322E-07   -0.27465E-08  4384   0.122E-03    0.137E-03
DAV:  10    -0.182742126455E+03    0.14657E-07   -0.33977E-08  4656   0.999E-04    0.922E-04
DAV:  11    -0.182742126457E+03   -0.22301E-08   -0.34791E-09  3456   0.504E-04
  36 F= -.18274213E+03 E0= -.18274213E+03  d E =-.295275E-04
       N       E                     dE             d eps       ncg     rms          rms(c)
DAV:   1    -0.182741858025E+03    0.26843E-03   -0.89997E-02  6376   0.162E+00    0.775E-02
DAV:   2    -0.182742163662E+03   -0.30564E-03   -0.32690E-03  8040   0.298E-01    0.362E-02
DAV:   3    -0.182742161624E+03    0.20379E-05   -0.61447E-05  8832   0.538E-02    0.276E-02
DAV:   4    -0.182742158106E+03    0.35181E-05   -0.74157E-06  9216   0.205E-02    0.124E-02
DAV:   5    -0.182742156818E+03    0.12880E-05   -0.48102E-06  9256   0.147E-02    0.887E-03
DAV:   6    -0.182742156812E+03    0.58753E-08   -0.58195E-07  8928   0.421E-03    0.832E-03
DAV:   7    -0.182742156828E+03   -0.16407E-07   -0.11480E-08  4088   0.733E-04    0.878E-03
DAV:   8    -0.182742156500E+03    0.32819E-06   -0.30471E-07  7368   0.329E-03    0.220E-03
DAV:   9    -0.182742156451E+03    0.49404E-07   -0.57566E-08  6000   0.156E-03    0.206E-03
DAV:  10    -0.182742156431E+03    0.19823E-07   -0.35187E-08  4784   0.107E-03    0.159E-03
DAV:  11    -0.182742156420E+03    0.11180E-07   -0.74788E-09  3472   0.686E-04    0.122E-03
DAV:  12    -0.182742156430E+03   -0.10463E-07   -0.32768E-08  5144   0.912E-04    0.324E-04
DAV:  13    -0.182742156434E+03   -0.38672E-08   -0.47225E-09  3448   0.599E-04
  37 F= -.18274216E+03 E0= -.18274216E+03  d E =-.595047E-04
       N       E                     dE             d eps       ncg     rms          rms(c)
DAV:   1    -0.182740945831E+03    0.12106E-02   -0.35996E-01  6376   0.324E+00    0.155E-01
DAV:   2    -0.182742170090E+03   -0.12243E-02   -0.13101E-02  8016   0.597E-01    0.723E-02
DAV:   3    -0.182742161506E+03    0.85841E-05   -0.24627E-04  8832   0.108E-01    0.552E-02
DAV:   4    -0.182742147230E+03    0.14276E-04   -0.29511E-05  9216   0.408E-02    0.250E-02
DAV:   5    -0.182742142979E+03    0.42509E-05   -0.19300E-05  9256   0.296E-02    0.176E-02
DAV:   6    -0.182742143040E+03   -0.60903E-07   -0.23504E-06  9120   0.844E-03    0.165E-02
DAV:   7    -0.182742143079E+03   -0.38726E-07   -0.75207E-08  7608   0.141E-03    0.174E-02
DAV:   8    -0.182742142657E+03    0.42157E-06   -0.19109E-06  8328   0.822E-03    0.446E-03
DAV:   9    -0.182742142432E+03    0.22534E-06   -0.33707E-07  7568   0.356E-03    0.438E-03
DAV:  10    -0.182742142325E+03    0.10748E-06   -0.29418E-07  7288   0.257E-03    0.325E-03
DAV:  11    -0.182742142279E+03    0.45427E-07   -0.79677E-08  6528   0.158E-03    0.223E-03
DAV:  12    -0.182742142278E+03    0.75306E-09   -0.55713E-08  5800   0.129E-03
  38 F= -.18274214E+03 E0= -.18274214E+03  d E =-.453491E-04
       N       E                     dE             d eps       ncg     rms          rms(c)
DAV:   1    -0.182741686172E+03    0.45611E-03   -0.14397E-01  6376   0.205E+00    0.979E-02
DAV:   2    -0.182742171089E+03   -0.48492E-03   -0.52077E-03  8016   0.377E-01    0.454E-02
DAV:   3    -0.182742167607E+03    0.34824E-05   -0.97992E-05  8832   0.684E-02    0.348E-02
DAV:   4    -0.182742161678E+03    0.59291E-05   -0.11896E-05  9216   0.257E-02    0.155E-02
DAV:   5    -0.182742161037E+03    0.64021E-06   -0.76148E-06  9256   0.185E-02    0.114E-02
DAV:   6    -0.182742161145E+03   -0.10814E-06   -0.92924E-07  9120   0.531E-03    0.107E-02
DAV:   7    -0.182742161130E+03    0.15207E-07   -0.20884E-08  4792   0.890E-04    0.114E-02
DAV:   8    -0.182742161640E+03   -0.50993E-06   -0.56120E-07  8688   0.452E-03    0.282E-03
DAV:   9    -0.182742161640E+03   -0.14552E-09   -0.93081E-08  6896   0.182E-03
  39 F= -.18274216E+03 E0= -.18274216E+03  d E =-.647110E-04
       N       E                     dE             d eps       ncg     rms          rms(c)
DAV:   1    -0.182742005032E+03    0.15661E-03   -0.50944E-02  6432   0.131E+00    0.625E-02
DAV:   2    -0.182742192014E+03   -0.18698E-03   -0.20340E-03  8088   0.228E-01    0.267E-02
DAV:   3    -0.182742192104E+03   -0.89356E-07   -0.43901E-05  8920   0.415E-02    0.201E-02
DAV:   4    -0.182742189806E+03    0.22979E-05   -0.90048E-06  8080   0.208E-02    0.506E-03
DAV:   5    -0.182742189985E+03   -0.17940E-06   -0.21756E-06  9216   0.834E-03    0.676E-03
DAV:   6    -0.182742189997E+03   -0.12162E-07   -0.25480E-07  8536   0.285E-03    0.754E-03
DAV:   7    -0.182742189995E+03    0.20227E-08   -0.73715E-09  4032   0.537E-04
  40 F= -.18274219E+03 E0= -.18274219E+03  d E =-.283551E-04
       N       E                     dE             d eps       ncg     rms          rms(c)
DAV:   1    -0.182742152413E+03    0.37585E-04   -0.11246E-02  6448   0.613E-01    0.306E-02
DAV:   2    -0.182742193912E+03   -0.41499E-04   -0.45236E-04  8104   0.107E-01    0.125E-02
DAV:   3    -0.182742194027E+03   -0.11499E-06   -0.10096E-05  8912   0.200E-02    0.893E-03
DAV:   4    -0.182742193702E+03    0.32495E-06   -0.22898E-06  8008   0.101E-02    0.295E-03
DAV:   5    -0.182742193783E+03   -0.81094E-07   -0.50474E-07  9216   0.426E-03    0.327E-03
DAV:   6    -0.182742193794E+03   -0.11674E-07   -0.82079E-08  6992   0.153E-03    0.356E-03
DAV:   7    -0.182742193792E+03    0.22264E-08   -0.37968E-09  3912   0.386E-04
  41 F= -.18274219E+03 E0= -.18274219E+03  d E =-.321518E-04
       N       E                     dE             d eps       ncg     rms          rms(c)
DAV:   1    -0.182742060579E+03    0.13322E-03   -0.46859E-02  6424   0.122E+00    0.803E-02
DAV:   2    -0.182742222605E+03   -0.16203E-03   -0.17998E-03  8096   0.222E-01    0.372E-02
DAV:   3    -0.182742220443E+03    0.21611E-05   -0.37452E-05  8792   0.410E-02    0.322E-02
DAV:   4    -0.182742217996E+03    0.24471E-05   -0.55874E-06  9120   0.168E-02    0.124E-02
DAV:   5    -0.182742216883E+03    0.11131E-05   -0.29132E-06  9032   0.114E-02    0.863E-03
DAV:   6    -0.182742216851E+03    0.32262E-07   -0.29800E-07  8832   0.324E-03    0.827E-03
DAV:   7    -0.182742216843E+03    0.79017E-08   -0.10685E-08  4048   0.647E-04
  42 F= -.18274222E+03 E0= -.18274222E+03  d E =-.230510E-04
