NbOF2.5(OH)0.5_W1_VASP_PBE_DFT-D3_APO   
           1
     8.002600    0.000000    0.000000
     0.000000    5.407180    0.000000
    -1.574218    0.000000    7.460002
   Na   Nb   O    F 
     4     4     8     8
Direct configuration=     1
   0.36660001  0.77999997  0.11560000
   0.63339996  0.22000003  0.88440001
   0.63339996  0.27999997  0.38440001
   0.36660001  0.72000003  0.61559999
   0.15493999  0.26440000  0.31799999
   0.84505999  0.73560000  0.68200004
   0.84505999  0.76440000  0.18200001
   0.15493999  0.23560000  0.81799996
   0.18250001  0.15620001  0.07090000
   0.81749999  0.84380001  0.92909998
   0.81749999  0.65619999  0.42910001
   0.18250001  0.34380001  0.57090002
   0.04250000  0.54390001  0.21170001
   0.95749998  0.45609999  0.78829998
   0.95749998  0.04390001  0.28829998
   0.04250000  0.95609999  0.71170002
   0.37689999  0.44400001  0.31369999
   0.62310004  0.55599999  0.68630004
   0.62310004  0.94400001  0.18630001
   0.37689999  0.05599999  0.81369996
   0.31040001  0.97659999  0.37830001
   0.68959999  0.02340001  0.62169999
   0.68959999  0.47659999  0.12169999
   0.31040001  0.52340001  0.87830001
NbOF2.5(OH)0.5_W1_VASP_PBE_DFT-D3_APO   
           1
     8.110620    0.000000    0.063887
     0.000000    5.512675    0.000000
    -1.535912    0.000000    7.363645
   Na   Nb   O    F 
     4     4     8     8
Direct configuration=     2
   0.36552978  0.77975533  0.11600263
   0.63447019  0.22024467  0.88399737
   0.63447019  0.27975533  0.38399737
   0.36552978  0.72024467  0.61600263
   0.15660960  0.26140005  0.32351956
   0.84339038  0.73859995  0.67648047
   0.84339038  0.76140005  0.17648044
   0.15660960  0.23859995  0.82351953
   0.18092562  0.15716650  0.06069292
   0.81907438  0.84283351  0.93930705
   0.81907438  0.65716649  0.43930708
   0.18092562  0.34283351  0.56069295
   0.03827608  0.55404264  0.20905691
   0.96172390  0.44595736  0.79094308
   0.96172390  0.05404264  0.29094308
   0.03827608  0.94595736  0.70905692
   0.37745438  0.44664466  0.31504563
   0.62254565  0.55335534  0.68495440
   0.62254565  0.94664466  0.18495437
   0.37745438  0.05335534  0.81504560
   0.31346689  0.97139839  0.38086286
   0.68653311  0.02860161  0.61913714
   0.68653311  0.47139839  0.11913714
   0.31346689  0.52860161  0.88086286
NbOF2.5(OH)0.5_W1_VASP_PBE_DFT-D3_APO   
           1
     8.080434    0.000000    0.046034
     0.000000    5.483195    0.000000
    -1.546616    0.000000    7.390572
   Na   Nb   O    F 
     4     4     8     8
Direct configuration=     3
   0.36582464  0.77982238  0.11588609
   0.63417533  0.22017762  0.88411392
   0.63417533  0.27982238  0.38411392
   0.36582464  0.72017762  0.61588608
   0.15615346  0.26222234  0.32196090
   0.84384652  0.73777766  0.67803913
   0.84384652  0.76222234  0.17803910
   0.15615346  0.23777766  0.82196087
   0.18135261  0.15690158  0.06357889
   0.81864739  0.84309843  0.93642109
   0.81864739  0.65690157  0.43642112
   0.18135261  0.34309843  0.56357891
   0.03943716  0.55126255  0.20979511
   0.96056282  0.44873745  0.79020488
   0.96056282  0.05126255  0.29020488
   0.03943716  0.94873745  0.70979512
   0.37730261  0.44591976  0.31466599
   0.62269742  0.55408024  0.68533404
   0.62269742  0.94591976  0.18533401
   0.37730261  0.05408024  0.81466596
   0.31262427  0.97282415  0.38014462
   0.68737573  0.02717585  0.61985538
   0.68737573  0.47282415  0.11985538
   0.31262427  0.52717585  0.88014462
NbOF2.5(OH)0.5_W1_VASP_PBE_DFT-D3_APO   
           1
     8.047801    0.000000    0.026513
     0.000000    5.451665    0.000000
    -1.558338    0.000000    7.410445
   Na   Nb   O    F 
     4     4     8     8
Direct configuration=     4
   0.36518996  0.77989523  0.11656530
   0.63481001  0.22010477  0.88343471
   0.63481001  0.27989523  0.38343471
   0.36518996  0.72010477  0.61656529
   0.15354468  0.26224399  0.32130645
   0.84645530  0.73775601  0.67869358
   0.84645530  0.76224399  0.17869355
   0.15354468  0.23775601  0.82130642
   0.18108812  0.15657096  0.05908095
   0.81891188  0.84342906  0.94091903
   0.81891188  0.65657094  0.44091906
   0.18108812  0.34342906  0.55908097
   0.03713412  0.55406219  0.21000910
   0.96286586  0.44593781  0.78999088
   0.96286586  0.05406219  0.28999088
   0.03713412  0.94593781  0.71000912
   0.37634077  0.44644246  0.31516857
   0.62365925  0.55355754  0.68483146
   0.62365925  0.94644246  0.18483143
   0.37634077  0.05355754  0.81516854
   0.31323044  0.97273787  0.38076995
   0.68676956  0.02726213  0.61923005
   0.68676956  0.47273787  0.11923005
   0.31323044  0.52726213  0.88076995
NbOF2.5(OH)0.5_W1_VASP_PBE_DFT-D3_APO   
           1
     8.054625    0.000000    0.030595
     0.000000    5.458258    0.000000
    -1.555887    0.000000    7.406289
   Na   Nb   O    F 
     4     4     8     8
Direct configuration=     5
   0.36532315  0.77987991  0.11642400
   0.63467682  0.22012009  0.88357601
   0.63467682  0.27987991  0.38357601
   0.36532315  0.72012009  0.61642399
   0.15409283  0.26223943  0.32144437
   0.84590715  0.73776057  0.67855566
   0.84590715  0.76223943  0.17855563
   0.15409283  0.23776057  0.82144434
   0.18114456  0.15664050  0.06001915
   0.81885544  0.84335952  0.93998083
   0.81885544  0.65664048  0.43998086
   0.18114456  0.34335952  0.56001917
   0.03761787  0.55347336  0.20996574
   0.96238211  0.44652664  0.79003425
   0.96238211  0.05347336  0.29003425
   0.03761787  0.94652664  0.70996575
   0.37654273  0.44633252  0.31506429
   0.62345730  0.55366748  0.68493574
   0.62345730  0.94633252  0.18493571
   0.37654273  0.05366748  0.81506426
   0.31310298  0.97275601  0.38063921
   0.68689702  0.02724399  0.61936079
   0.68689702  0.47275601  0.11936079
   0.31310298  0.52724399  0.88063921
NbOF2.5(OH)0.5_W1_VASP_PBE_DFT-D3_APO   
           1
     8.059077    0.000000    0.007335
     0.000000    5.445287    0.000000
    -1.578385    0.000000    7.472191
   Na   Nb   O    F 
     4     4     8     8
Direct configuration=     6
   0.36491323  0.78002971  0.11725628
   0.63508674  0.21997029  0.88274373
   0.63508674  0.28002971  0.38274373
   0.36491323  0.71997029  0.61725627
   0.15496521  0.26239027  0.32018116
   0.84503477  0.73760973  0.67981887
   0.84503477  0.76239027  0.17981884
   0.15496521  0.23760973  0.82018113
   0.18066133  0.15563112  0.05810824
   0.81933867  0.84436890  0.94189174
   0.81933867  0.65563110  0.44189177
   0.18066133  0.34436890  0.55810826
   0.03722821  0.55460982  0.21021997
   0.96277177  0.44539018  0.78978002
   0.96277177  0.05460982  0.28978002
   0.03722821  0.94539018  0.71021998
   0.37534996  0.44690999  0.31509236
   0.62465007  0.55309001  0.68490767
   0.62465007  0.94690999  0.18490764
   0.37534996  0.05309001  0.81509233
   0.31310751  0.97345621  0.38059027
   0.68689249  0.02654379  0.61940973
   0.68689249  0.47345621  0.11940973
   0.31310751  0.52654379  0.88059027
NbOF2.5(OH)0.5_W1_VASP_PBE_DFT-D3_APO   
           1
     8.059391    0.000000    0.005698
     0.000000    5.444375    0.000000
    -1.579968    0.000000    7.476828
   Na   Nb   O    F 
     4     4     8     8
Direct configuration=     7
   0.36488445  0.78004028  0.11731424
   0.63511552  0.21995972  0.88268577
   0.63511552  0.28004028  0.38268577
   0.36488445  0.71995972  0.61731423
   0.15502651  0.26240091  0.32009325
   0.84497348  0.73759909  0.67990678
   0.84497348  0.76240091  0.17990675
   0.15502651  0.23759909  0.82009322
   0.18062719  0.15555992  0.05797486
   0.81937281  0.84444009  0.94202512
   0.81937281  0.65555991  0.44202515
   0.18062719  0.34444009  0.55797488
   0.03720081  0.55468998  0.21023761
   0.96279918  0.44531002  0.78976237
   0.96279918  0.05468998  0.28976237
   0.03720081  0.94531002  0.71023763
   0.37526603  0.44695072  0.31509406
   0.62473400  0.55304928  0.68490597
   0.62473400  0.94695072  0.18490594
   0.37526603  0.05304928  0.81509403
   0.31310782  0.97350559  0.38058686
   0.68689218  0.02649441  0.61941314
   0.68689218  0.47350559  0.11941314
   0.31310782  0.52649441  0.88058686
NbOF2.5(OH)0.5_W1_VASP_PBE_DFT-D3_APO   
           1
     8.088175    0.000000   -0.005575
     0.000000    5.440275    0.000000
    -1.596074    0.000000    7.482675
   Na   Nb   O    F 
     4     4     8     8
Direct configuration=     8
   0.36438341  0.78019053  0.11807626
   0.63561656  0.21980947  0.88192374
   0.63561656  0.28019053  0.38192374
   0.36438341  0.71980947  0.61807626
   0.15584768  0.26346031  0.32010920
   0.84415231  0.73653969  0.67989083
   0.84415231  0.76346031  0.17989080
   0.15584768  0.23653969  0.82010917
   0.17994397  0.15536431  0.05602501
   0.82005603  0.84463570  0.94397496
   0.82005603  0.65536430  0.44397499
   0.17994397  0.34463570  0.55602504
   0.03757632  0.55483523  0.21064631
   0.96242366  0.44516477  0.78935367
   0.96242366  0.05483523  0.28935367
   0.03757632  0.94516477  0.71064633
   0.37500936  0.44808405  0.31476901
   0.62499067  0.55191595  0.68523102
   0.62499067  0.94808405  0.18523099
   0.37500936  0.05191595  0.81476898
   0.31346706  0.97366869  0.38032988
   0.68653294  0.02633131  0.61967012
   0.68653294  0.47366869  0.11967012
   0.31346706  0.52633131  0.88032988
NbOF2.5(OH)0.5_W1_VASP_PBE_DFT-D3_APO   
           1
     8.089883    0.000000   -0.006244
     0.000000    5.440032    0.000000
    -1.597029    0.000000    7.483021
   Na   Nb   O    F 
     4     4     8     8
Direct configuration=     9
   0.36435387  0.78019944  0.11812138
   0.63564610  0.21980056  0.88187863
   0.63564610  0.28019944  0.38187863
   0.36435387  0.71980056  0.61812137
   0.15589622  0.26352319  0.32011022
   0.84410376  0.73647681  0.67988981
   0.84410376  0.76352319  0.17988978
   0.15589622  0.23647681  0.82011019
   0.17990337  0.15535270  0.05590940
   0.82009663  0.84464731  0.94409057
   0.82009663  0.65535269  0.44409060
   0.17990337  0.34464731  0.55590943
   0.03759856  0.55484385  0.21067057
   0.96240142  0.44515615  0.78932942
   0.96240142  0.05484385  0.28932942
   0.03759856  0.94515615  0.71067058
   0.37499415  0.44815131  0.31474973
   0.62500588  0.55184869  0.68525030
   0.62500588  0.94815131  0.18525027
   0.37499415  0.05184869  0.81474970
   0.31348827  0.97367837  0.38031469
   0.68651173  0.02632163  0.61968531
   0.68651173  0.47367837  0.11968531
   0.31348827  0.52632163  0.88031469
NbOF2.5(OH)0.5_W1_VASP_PBE_DFT-D3_APO   
           1
     8.105929    0.000000   -0.018451
     0.000000    5.431111    0.000000
    -1.611487    0.000000    7.484973
   Na   Nb   O    F 
     4     4     8     8
Direct configuration=    10
   0.36378938  0.78038534  0.11887325
   0.63621059  0.21961466  0.88112675
   0.63621059  0.28038534  0.38112675
   0.36378938  0.71961466  0.61887325
   0.15518244  0.26434727  0.31932227
   0.84481755  0.73565273  0.68067776
   0.84481755  0.76434727  0.18067773
   0.15518244  0.23565273  0.81932224
   0.17942341  0.15509990  0.05513907
   0.82057659  0.84490012  0.94486091
   0.82057659  0.65509988  0.44486094
   0.17942341  0.34490012  0.55513909
   0.03749410  0.55506169  0.21115448
   0.96250588  0.44493831  0.78884551
   0.96250588  0.05506169  0.28884551
   0.03749410  0.94493831  0.71115449
   0.37520995  0.44935442  0.31425861
   0.62479008  0.55064558  0.68574142
   0.62479008  0.94935442  0.18574139
   0.37520995  0.05064558  0.81425858
   0.31398776  0.97372446  0.37987878
   0.68601224  0.02627554  0.62012122
   0.68601224  0.47372446  0.12012122
   0.31398776  0.52627554  0.87987878
NbOF2.5(OH)0.5_W1_VASP_PBE_DFT-D3_APO   
           1
     8.103053    0.000000   -0.016263
     0.000000    5.432709    0.000000
    -1.608896    0.000000    7.484623
   Na   Nb   O    F 
     4     4     8     8
Direct configuration=    11
   0.36389014  0.78035197  0.11873871
   0.63610983  0.21964803  0.88126130
   0.63610983  0.28035197  0.38126130
   0.36389014  0.71964803  0.61873870
   0.15531039  0.26419934  0.31946366
   0.84468959  0.73580066  0.68053637
   0.84468959  0.76419934  0.18053634
   0.15531039  0.23580066  0.81946363
   0.17950952  0.15514528  0.05527723
   0.82049048  0.84485474  0.94472275
   0.82049048  0.65514526  0.44472278
   0.17950952  0.34485474  0.55527725
   0.03751264  0.55502259  0.21106781
   0.96248734  0.44497741  0.78893218
   0.96248734  0.05502259  0.28893218
   0.03751264  0.94497741  0.71106782
   0.37517150  0.44913846  0.31434654
   0.62482853  0.55086154  0.68565349
   0.62482853  0.94913846  0.18565346
   0.37517150  0.05086154  0.81434651
   0.31389853  0.97371619  0.37995673
   0.68610147  0.02628381  0.62004327
   0.68610147  0.47371619  0.12004327
   0.31389853  0.52628381  0.87995673
NbOF2.5(OH)0.5_W1_VASP_PBE_DFT-D3_APO   
           1
     8.101387    0.000000   -0.021102
     0.000000    5.427311    0.000000
    -1.613038    0.000000    7.482460
   Na   Nb   O    F 
     4     4     8     8
Direct configuration=    12
   0.36356483  0.78052812  0.11928709
   0.63643514  0.21947188  0.88071291
   0.63643514  0.28052812  0.38071291
   0.36356483  0.71947188  0.61928709
   0.15560376  0.26431234  0.31892663
   0.84439622  0.73568766  0.68107340
   0.84439622  0.76431234  0.18107337
   0.15560376  0.23568766  0.81892660
   0.17912113  0.15504299  0.05531308
   0.82087887  0.84495703  0.94468690
   0.82087887  0.65504297  0.44468693
   0.17912113  0.34495703  0.55531310
   0.03720177  0.55550298  0.21125284
   0.96279821  0.44449702  0.78874714
   0.96279821  0.05550298  0.28874714
   0.03720177  0.94449702  0.71125286
   0.37509785  0.44972233  0.31393581
   0.62490218  0.55027767  0.68606422
   0.62490218  0.94972233  0.18606419
   0.37509785  0.05027767  0.81393578
   0.31400858  0.97412423  0.37946053
   0.68599142  0.02587577  0.62053947
   0.68599142  0.47412423  0.12053947
   0.31400858  0.52587577  0.87946053
NbOF2.5(OH)0.5_W1_VASP_PBE_DFT-D3_APO   
           1
     8.100654    0.000000   -0.023233
     0.000000    5.424933    0.000000
    -1.614863    0.000000    7.481507
   Na   Nb   O    F 
     4     4     8     8
Direct configuration=    13
   0.36342166  0.78060578  0.11952858
   0.63657831  0.21939422  0.88047142
   0.63657831  0.28060578  0.38047142
   0.36342166  0.71939422  0.61952858
   0.15573287  0.26436216  0.31869014
   0.84426712  0.73563784  0.68130989
   0.84426712  0.76436216  0.18130986
   0.15573287  0.23563784  0.81869011
   0.17895003  0.15499789  0.05532876
   0.82104997  0.84500212  0.94467122
   0.82104997  0.65499788  0.44467125
   0.17895003  0.34500212  0.55532878
   0.03706487  0.55571475  0.21133427
   0.96293511  0.44428525  0.78866572
   0.96293511  0.05571475  0.28866572
   0.03706487  0.94428525  0.71133428
   0.37506530  0.44997973  0.31375484
   0.62493473  0.55002027  0.68624519
   0.62493473  0.94997973  0.18624516
   0.37506530  0.05002027  0.81375481
   0.31405694  0.97430411  0.37924197
   0.68594306  0.02569589  0.62075803
   0.68594306  0.47430411  0.12075803
   0.31405694  0.52569589  0.87924197
NbOF2.5(OH)0.5_W1_VASP_PBE_DFT-D3_APO   
           1
     8.103847    0.000000   -0.019834
     0.000000    5.430570    0.000000
    -1.612383    0.000000    7.473754
   Na   Nb   O    F 
     4     4     8     8
Direct configuration=    14
   0.36312845  0.78080060  0.11990715
   0.63687152  0.21919940  0.88009286
   0.63687152  0.28080060  0.38009286
   0.36312845  0.71919940  0.61990714
   0.15609371  0.26468068  0.31861631
   0.84390628  0.73531932  0.68138372
   0.84390628  0.76468068  0.18138369
   0.15609371  0.23531932  0.81861628
   0.17874003  0.15517709  0.05521075
   0.82125997  0.84482292  0.94478923
   0.82125997  0.65517708  0.44478926
   0.17874003  0.34482292  0.55521077
   0.03690647  0.55619860  0.21136894
   0.96309351  0.44380140  0.78863105
   0.96309351  0.05619860  0.28863105
   0.03690647  0.94380140  0.71136895
   0.37510628  0.45050181  0.31341810
   0.62489375  0.54949819  0.68658193
   0.62489375  0.95050181  0.18658190
   0.37510628  0.04949819  0.81341807
   0.31434433  0.97445231  0.37896213
   0.68565567  0.02554769  0.62103787
   0.68565567  0.47445231  0.12103787
   0.31434433  0.52554769  0.87896213
NbOF2.5(OH)0.5_W1_VASP_PBE_DFT-D3_APO   
           1
     8.103563    0.000000   -0.020136
     0.000000    5.430069    0.000000
    -1.612603    0.000000    7.474443
   Na   Nb   O    F 
     4     4     8     8
Direct configuration=    15
   0.36315452  0.78078329  0.11987344
   0.63684545  0.21921671  0.88012657
   0.63684545  0.28078329  0.38012657
   0.36315452  0.71921671  0.61987343
   0.15606164  0.26465239  0.31862289
   0.84393835  0.73534761  0.68137714
   0.84393835  0.76465239  0.18137711
   0.15606164  0.23534761  0.81862286
   0.17875870  0.15516118  0.05522125
   0.82124130  0.84483884  0.94477873
   0.82124130  0.65516116  0.44477876
   0.17875870  0.34483884  0.55522127
   0.03692055  0.55615562  0.21136585
   0.96307943  0.44384438  0.78863414
   0.96307943  0.05615562  0.28863414
   0.03692055  0.94384438  0.71136586
   0.37510263  0.45045544  0.31344808
   0.62489740  0.54954456  0.68655195
   0.62489740  0.95045544  0.18655192
   0.37510263  0.04954456  0.81344805
   0.31431878  0.97443914  0.37898705
   0.68568122  0.02556086  0.62101295
   0.68568122  0.47443914  0.12101295
   0.31431878  0.52556086  0.87898705
NbOF2.5(OH)0.5_W1_VASP_PBE_DFT-D3_APO   
           1
     8.101390    0.000000   -0.016907
     0.000000    5.434367    0.000000
    -1.609194    0.000000    7.474021
   Na   Nb   O    F 
     4     4     8     8
Direct configuration=    16
   0.36292692  0.78094231  0.12003656
   0.63707305  0.21905769  0.87996345
   0.63707305  0.28094231  0.37996345
   0.36292692  0.71905769  0.62003655
   0.15582702  0.26500779  0.31838172
   0.84417297  0.73499221  0.68161831
   0.84417297  0.76500779  0.18161828
   0.15582702  0.23499221  0.81838169
   0.17883922  0.15536962  0.05524193
   0.82116078  0.84463040  0.94475805
   0.82116078  0.65536960  0.44475808
   0.17883922  0.34463040  0.55524195
   0.03684727  0.55637370  0.21142331
   0.96315271  0.44362630  0.78857668
   0.96315271  0.05637370  0.28857668
   0.03684727  0.94362630  0.71142332
   0.37520126  0.45080372  0.31324921
   0.62479877  0.54919628  0.68675082
   0.62479877  0.95080372  0.18675079
   0.37520126  0.04919628  0.81324918
   0.31459464  0.97460327  0.37894203
   0.68540536  0.02539673  0.62105797
   0.68540536  0.47460327  0.12105797
   0.31459464  0.52539673  0.87894203
NbOF2.5(OH)0.5_W1_VASP_PBE_DFT-D3_APO   
           1
     8.101691    0.000000   -0.017354
     0.000000    5.433772    0.000000
    -1.609666    0.000000    7.474080
   Na   Nb   O    F 
     4     4     8     8
Direct configuration=    17
   0.36295843  0.78092032  0.12001398
   0.63704154  0.21907968  0.87998603
   0.63704154  0.28092032  0.37998603
   0.36295843  0.71907968  0.62001397
   0.15585947  0.26495866  0.31841508
   0.84414051  0.73504134  0.68158495
   0.84414051  0.76495866  0.18158492
   0.15585947  0.23504134  0.81841505
   0.17882808  0.15534080  0.05523907
   0.82117192  0.84465922  0.94476091
   0.82117192  0.65534078  0.44476094
   0.17882808  0.34465922  0.55523909
   0.03685742  0.55634355  0.21141535
   0.96314256  0.44365645  0.78858463
   0.96314256  0.05634355  0.28858463
   0.03685742  0.94365645  0.71141537
   0.37518760  0.45075557  0.31327673
   0.62481243  0.54924443  0.68672330
   0.62481243  0.95075557  0.18672327
   0.37518760  0.04924443  0.81327670
   0.31455646  0.97458058  0.37894828
   0.68544354  0.02541942  0.62105172
   0.68544354  0.47458058  0.12105172
   0.31455646  0.52541942  0.87894828
NbOF2.5(OH)0.5_W1_VASP_PBE_DFT-D3_APO   
           1
     8.093688    0.000000   -0.014345
     0.000000    5.435342    0.000000
    -1.605299    0.000000    7.474179
   Na   Nb   O    F 
     4     4     8     8
Direct configuration=    18
   0.36277265  0.78107081  0.12008702
   0.63722732  0.21892919  0.87991298
   0.63722732  0.28107081  0.37991298
   0.36277265  0.71892919  0.62008702
   0.15589252  0.26521057  0.31825334
   0.84410747  0.73478943  0.68174669
   0.84410747  0.76521057  0.18174666
   0.15589252  0.23478943  0.81825331
   0.17897118  0.15563010  0.05522547
   0.82102882  0.84436991  0.94477451
   0.82102882  0.65563009  0.44477454
   0.17897118  0.34436991  0.55522549
   0.03687663  0.55645135  0.21149266
   0.96312335  0.44354865  0.78850733
   0.96312335  0.05645135  0.28850733
   0.03687663  0.94354865  0.71149267
   0.37516223  0.45096609  0.31312760
   0.62483780  0.54903391  0.68687243
   0.62483780  0.95096609  0.18687240
   0.37516223  0.04903391  0.81312757
   0.31466950  0.97506396  0.37894157
   0.68533050  0.02493604  0.62105843
   0.68533050  0.47506396  0.12105843
   0.31466950  0.52493604  0.87894157
NbOF2.5(OH)0.5_W1_VASP_PBE_DFT-D3_APO   
           1
     8.087249    0.000000   -0.011923
     0.000000    5.436606    0.000000
    -1.601785    0.000000    7.474259
   Na   Nb   O    F 
     4     4     8     8
Direct configuration=    19
   0.36262300  0.78119187  0.12014586
   0.63737697  0.21880813  0.87985414
   0.63737697  0.28119187  0.37985414
   0.36262300  0.71880813  0.62014586
   0.15591921  0.26541322  0.31812318
   0.84408078  0.73458678  0.68187685
   0.84408078  0.76541322  0.18187682
   0.15591921  0.23458678  0.81812315
   0.17908645  0.15586283  0.05521448
   0.82091355  0.84413718  0.94478549
   0.82091355  0.65586282  0.44478552
   0.17908645  0.34413718  0.55521451
   0.03689207  0.55653806  0.21155486
   0.96310791  0.44346194  0.78844513
   0.96310791  0.05653806  0.28844513
   0.03689207  0.94346194  0.71155487
   0.37514187  0.45113545  0.31300760
   0.62485816  0.54886455  0.68699243
   0.62485816  0.95113545  0.18699240
   0.37514187  0.04886455  0.81300757
   0.31476054  0.97545282  0.37893613
   0.68523946  0.02454718  0.62106387
   0.68523946  0.47545282  0.12106387
   0.31476054  0.52454718  0.87893613
NbOF2.5(OH)0.5_W1_VASP_PBE_DFT-D3_APO   
           1
     8.086154    0.000000   -0.010019
     0.000000    5.440899    0.000000
    -1.599806    0.000000    7.476262
   Na   Nb   O    F 
     4     4     8     8
Direct configuration=    20
   0.36245027  0.78129166  0.12008838
   0.63754970  0.21870834  0.87991162
   0.63754970  0.28129166  0.37991162
   0.36245027  0.71870834  0.62008838
   0.15613374  0.26546443  0.31809720
   0.84386624  0.73453557  0.68190283
   0.84386624  0.76546443  0.18190280
   0.15613374  0.23453557  0.81809717
   0.17923933  0.15609316  0.05519791
   0.82076067  0.84390685  0.94480207
   0.82076067  0.65609315  0.44480210
   0.17923933  0.34390685  0.55519793
   0.03704402  0.55667891  0.21162309
   0.96295596  0.44332109  0.78837689
   0.96295596  0.05667891  0.28837689
   0.03704402  0.94332109  0.71162311
   0.37525132  0.45142115  0.31288590
   0.62474871  0.54857885  0.68711413
   0.62474871  0.95142115  0.18711410
   0.37525132  0.04857885  0.81288587
   0.31486141  0.97592927  0.37896755
   0.68513859  0.02407073  0.62103245
   0.68513859  0.47592927  0.12103245
   0.31486141  0.52407073  0.87896755
NbOF2.5(OH)0.5_W1_VASP_PBE_DFT-D3_APO   
           1
     8.086339    0.000000   -0.010341
     0.000000    5.440172    0.000000
    -1.600141    0.000000    7.475923
   Na   Nb   O    F 
     4     4     8     8
Direct configuration=    21
   0.36247951  0.78127478  0.12009810
   0.63752046  0.21872522  0.87990190
   0.63752046  0.28127478  0.37990190
   0.36247951  0.71872522  0.62009810
   0.15609742  0.26545576  0.31810160
   0.84390257  0.73454424  0.68189843
   0.84390257  0.76545576  0.18189840
   0.15609742  0.23454424  0.81810157
   0.17921345  0.15605420  0.05520072
   0.82078655  0.84394581  0.94479926
   0.82078655  0.65605419  0.44479929
   0.17921345  0.34394581  0.55520074
   0.03701830  0.55665508  0.21161155
   0.96298168  0.44334492  0.78838843
   0.96298168  0.05665508  0.28838843
   0.03701830  0.94334492  0.71161157
   0.37523279  0.45137282  0.31290650
   0.62476724  0.54862718  0.68709353
   0.62476724  0.95137282  0.18709350
   0.37523279  0.04862718  0.81290647
   0.31484434  0.97584867  0.37896224
   0.68515566  0.02415133  0.62103776
   0.68515566  0.47584867  0.12103776
   0.31484434  0.52415133  0.87896224
NbOF2.5(OH)0.5_W1_VASP_PBE_DFT-D3_APO   
           1
     8.084928    0.000000   -0.010819
     0.000000    5.441666    0.000000
    -1.600303    0.000000    7.476135
   Na   Nb   O    F 
     4     4     8     8
Direct configuration=    22
   0.36232849  0.78131685  0.11994561
   0.63767148  0.21868315  0.88005439
   0.63767148  0.28131685  0.38005439
   0.36232849  0.71868315  0.61994561
   0.15603789  0.26544776  0.31806503
   0.84396210  0.73455224  0.68193500
   0.84396210  0.76544776  0.18193497
   0.15603789  0.23455224  0.81806500
   0.17935903  0.15620924  0.05516168
   0.82064097  0.84379078  0.94483830
   0.82064097  0.65620922  0.44483833
   0.17935903  0.34379078  0.55516170
   0.03710706  0.55682235  0.21171673
   0.96289292  0.44317765  0.78828326
   0.96289292  0.05682235  0.28828326
   0.03710706  0.94317765  0.71171674
   0.37541152  0.45162277  0.31283069
   0.62458851  0.54837723  0.68716934
   0.62458851  0.95162277  0.18716931
   0.37541152  0.04837723  0.81283066
   0.31497630  0.97621423  0.37901703
   0.68502370  0.02378577  0.62098297
   0.68502370  0.47621423  0.12098297
   0.31497630  0.52378577  0.87901703
NbOF2.5(OH)0.5_W1_VASP_PBE_DFT-D3_APO   
           1
     8.084786    0.000000   -0.010867
     0.000000    5.441816    0.000000
    -1.600319    0.000000    7.476157
   Na   Nb   O    F 
     4     4     8     8
Direct configuration=    23
   0.36231329  0.78132108  0.11993026
   0.63768668  0.21867892  0.88006974
   0.63768668  0.28132108  0.38006974
   0.36231329  0.71867892  0.61993026
   0.15603189  0.26544695  0.31806135
   0.84396809  0.73455305  0.68193868
   0.84396809  0.76544695  0.18193865
   0.15603189  0.23455305  0.81806132
   0.17937368  0.15622484  0.05515775
   0.82062632  0.84377518  0.94484223
   0.82062632  0.65622482  0.44484226
   0.17937368  0.34377518  0.55515777
   0.03711600  0.55683918  0.21172731
   0.96288398  0.44316082  0.78827267
   0.96288398  0.05683918  0.28827267
   0.03711600  0.94316082  0.71172733
   0.37542951  0.45164792  0.31282307
   0.62457051  0.54835208  0.68717696
   0.62457051  0.95164792  0.18717693
   0.37542951  0.04835208  0.81282304
   0.31498959  0.97625101  0.37902255
   0.68501041  0.02374899  0.62097745
   0.68501041  0.47625101  0.12097745
   0.31498959  0.52374899  0.87902255
NbOF2.5(OH)0.5_W1_VASP_PBE_DFT-D3_APO   
           1
     8.080219    0.000000   -0.012522
     0.000000    5.441025    0.000000
    -1.600947    0.000000    7.474873
   Na   Nb   O    F 
     4     4     8     8
Direct configuration=    24
   0.36221183  0.78132735  0.11972942
   0.63778814  0.21867265  0.88027059
   0.63778814  0.28132735  0.38027059
   0.36221183  0.71867265  0.61972941
   0.15609057  0.26547386  0.31803052
   0.84390941  0.73452614  0.68196951
   0.84390941  0.76547386  0.18196948
   0.15609057  0.23452614  0.81803049
   0.17945199  0.15630705  0.05514246
   0.82054801  0.84369297  0.94485751
   0.82054801  0.65630703  0.44485754
   0.17945199  0.34369297  0.55514249
   0.03715188  0.55704516  0.21183944
   0.96284810  0.44295484  0.78816055
   0.96284810  0.05704516  0.28816055
   0.03715188  0.94295484  0.71183945
   0.37547072  0.45175938  0.31277521
   0.62452931  0.54824062  0.68722482
   0.62452931  0.95175938  0.18722479
   0.37547072  0.04824062  0.81277518
   0.31508819  0.97652937  0.37906215
   0.68491181  0.02347063  0.62093785
   0.68491181  0.47652937  0.12093785
   0.31508819  0.52347063  0.87906215
NbOF2.5(OH)0.5_W1_VASP_PBE_DFT-D3_APO   
           1
     8.080417    0.000000   -0.012450
     0.000000    5.441059    0.000000
    -1.600920    0.000000    7.474929
   Na   Nb   O    F 
     4     4     8     8
Direct configuration=    25
   0.36221623  0.78132708  0.11973814
   0.63778374  0.21867292  0.88026187
   0.63778374  0.28132708  0.38026187
   0.36221623  0.71867292  0.61973813
   0.15608802  0.26547269  0.31803186
   0.84391196  0.73452731  0.68196817
   0.84391196  0.76547269  0.18196814
   0.15608802  0.23452731  0.81803183
   0.17944859  0.15630348  0.05514313
   0.82055141  0.84369654  0.94485685
   0.82055141  0.65630346  0.44485688
   0.17944859  0.34369654  0.55514315
   0.03715032  0.55703622  0.21183457
   0.96284966  0.44296378  0.78816541
   0.96284966  0.05703622  0.28816541
   0.03715032  0.94296378  0.71183459
   0.37546893  0.45175454  0.31277728
   0.62453110  0.54824546  0.68722275
   0.62453110  0.95175454  0.18722272
   0.37546893  0.04824546  0.81277725
   0.31508391  0.97651729  0.37906043
   0.68491609  0.02348271  0.62093957
   0.68491609  0.47651729  0.12093957
   0.31508391  0.52348271  0.87906043
NbOF2.5(OH)0.5_W1_VASP_PBE_DFT-D3_APO   
           1
     8.078305    0.000000   -0.014102
     0.000000    5.441837    0.000000
    -1.602029    0.000000    7.475772
   Na   Nb   O    F 
     4     4     8     8
Direct configuration=    26
   0.36213261  0.78131674  0.11950275
   0.63786736  0.21868326  0.88049726
   0.63786736  0.28131674  0.38049726
   0.36213261  0.71868326  0.61950274
   0.15619452  0.26557883  0.31796574
   0.84380547  0.73442117  0.68203429
   0.84380547  0.76557883  0.18203426
   0.15619452  0.23442117  0.81796571
   0.17950128  0.15630271  0.05520938
   0.82049872  0.84369730  0.94479060
   0.82049872  0.65630270  0.44479063
   0.17950128  0.34369730  0.55520940
   0.03720681  0.55727291  0.21193836
   0.96279317  0.44272709  0.78806162
   0.96279317  0.05727291  0.28806162
   0.03720681  0.94272709  0.71193838
   0.37549322  0.45186959  0.31273803
   0.62450681  0.54813041  0.68726200
   0.62450681  0.95186959  0.18726197
   0.37549322  0.04813041  0.81273800
   0.31523244  0.97662016  0.37910136
   0.68476756  0.02337984  0.62089864
   0.68476756  0.47662016  0.12089864