  24  24   0   0
  0.1379036E+02  0.8187962E-09  0.5481074E-09  0.7550828E-09  0.5000000E-15
   1.0000000000000000E-004
  CAR 
 unknown system                          
     14.32570226    -70.26711736  301      0.86134513      1.00000000
    -70.267  0.0000E+00  0.0000E+00
    -69.985  0.0000E+00  0.0000E+00
    -69.703  0.0000E+00  0.0000E+00
    -69.421  0.0000E+00  0.0000E+00
    -69.139  0.0000E+00  0.0000E+00
    -68.857  0.0000E+00  0.0000E+00
    -68.575  0.0000E+00  0.0000E+00
    -68.293  0.0000E+00  0.0000E+00
    -68.011  0.0000E+00  0.0000E+00
    -67.729  0.0000E+00  0.0000E+00
    -67.447  0.0000E+00  0.0000E+00
    -67.165  0.0000E+00  0.0000E+00
    -66.883  0.0000E+00  0.0000E+00
    -66.601  0.0000E+00  0.0000E+00
    -66.319  0.0000E+00  0.8000E+01
    -66.037  0.0000E+00  0.8000E+01
    -65.756  0.0000E+00  0.8000E+01
    -65.474  0.0000E+00  0.8000E+01
    -65.192  0.0000E+00  0.8000E+01
    -64.910  0.0000E+00  0.8000E+01
    -64.628  0.0000E+00  0.8000E+01
    -64.346  0.0000E+00  0.8000E+01
    -64.064  0.0000E+00  0.8000E+01
    -63.782  0.0000E+00  0.8000E+01
    -63.500  0.0000E+00  0.8000E+01
    -63.218  0.0000E+00  0.8000E+01
    -62.936  0.0000E+00  0.8000E+01
    -62.654  0.0000E+00  0.8000E+01
    -62.372  0.0000E+00  0.8000E+01
    -62.090  0.0000E+00  0.8000E+01
    -61.808  0.0000E+00  0.8000E+01
    -61.526  0.0000E+00  0.8000E+01
    -61.244  0.0000E+00  0.8000E+01
    -60.962  0.0000E+00  0.8000E+01
    -60.680  0.0000E+00  0.8000E+01
    -60.398  0.0000E+00  0.8000E+01
    -60.116  0.0000E+00  0.8000E+01
    -59.834  0.0000E+00  0.8000E+01
    -59.552  0.0000E+00  0.8000E+01
    -59.270  0.0000E+00  0.8000E+01
    -58.988  0.0000E+00  0.8000E+01
    -58.706  0.0000E+00  0.8000E+01
    -58.424  0.0000E+00  0.8000E+01
    -58.142  0.0000E+00  0.8000E+01
    -57.860  0.0000E+00  0.8000E+01
    -57.578  0.0000E+00  0.8000E+01
    -57.296  0.0000E+00  0.8000E+01
    -57.014  0.0000E+00  0.8000E+01
    -56.732  0.0000E+00  0.8000E+01
    -56.450  0.0000E+00  0.8000E+01
    -56.168  0.0000E+00  0.8000E+01
    -55.886  0.0000E+00  0.8000E+01
    -55.604  0.0000E+00  0.8000E+01
    -55.322  0.0000E+00  0.8000E+01
    -55.040  0.0000E+00  0.8000E+01
    -54.758  0.0000E+00  0.8000E+01
    -54.476  0.0000E+00  0.8000E+01
    -54.194  0.0000E+00  0.8000E+01
    -53.913  0.0000E+00  0.8000E+01
    -53.631  0.0000E+00  0.8000E+01
    -53.349  0.0000E+00  0.8000E+01
    -53.067  0.0000E+00  0.8000E+01
    -52.785  0.0000E+00  0.8000E+01
    -52.503  0.0000E+00  0.8000E+01
    -52.221  0.0000E+00  0.8000E+01
    -51.939  0.0000E+00  0.8000E+01
    -51.657  0.0000E+00  0.8000E+01
    -51.375  0.0000E+00  0.8000E+01
    -51.093  0.0000E+00  0.8000E+01
    -50.811  0.0000E+00  0.8000E+01
    -50.529  0.0000E+00  0.8000E+01
    -50.247  0.0000E+00  0.8000E+01
    -49.965  0.0000E+00  0.8000E+01
    -49.683  0.0000E+00  0.8000E+01
    -49.401  0.0000E+00  0.8000E+01
    -49.119  0.0000E+00  0.8000E+01
    -48.837  0.0000E+00  0.8000E+01
    -48.555  0.0000E+00  0.8000E+01
    -48.273  0.0000E+00  0.8000E+01
    -47.991  0.0000E+00  0.8000E+01
    -47.709  0.7058E-12  0.8000E+01
    -47.427  0.0000E+00  0.1600E+02
    -47.145  0.0000E+00  0.1600E+02
    -46.863  0.0000E+00  0.1600E+02
    -46.581  0.0000E+00  0.1600E+02
    -46.299  0.0000E+00  0.1600E+02
    -46.017  0.0000E+00  0.1600E+02
    -45.735  0.0000E+00  0.1600E+02
    -45.453  0.0000E+00  0.1600E+02
    -45.171  0.0000E+00  0.1600E+02
    -44.889  0.0000E+00  0.1600E+02
    -44.607  0.0000E+00  0.1600E+02
    -44.325  0.0000E+00  0.1600E+02
    -44.043  0.0000E+00  0.1600E+02
    -43.761  0.0000E+00  0.1600E+02
    -43.479  0.0000E+00  0.1600E+02
    -43.197  0.0000E+00  0.1600E+02
    -42.915  0.0000E+00  0.1600E+02
    -42.633  0.0000E+00  0.1600E+02
    -42.351  0.0000E+00  0.1600E+02
    -42.070  0.0000E+00  0.1600E+02
    -41.788  0.0000E+00  0.1600E+02
    -41.506  0.0000E+00  0.1600E+02
    -41.224  0.0000E+00  0.1600E+02
    -40.942  0.0000E+00  0.1600E+02
    -40.660  0.0000E+00  0.1600E+02
    -40.378  0.0000E+00  0.1600E+02
    -40.096  0.0000E+00  0.1600E+02
    -39.814  0.0000E+00  0.1600E+02
    -39.532  0.0000E+00  0.1600E+02
    -39.250  0.0000E+00  0.1600E+02
    -38.968  0.0000E+00  0.1600E+02
    -38.686  0.0000E+00  0.1600E+02
    -38.404  0.0000E+00  0.1600E+02
    -38.122  0.0000E+00  0.1600E+02
    -37.840  0.0000E+00  0.1600E+02
    -37.558  0.0000E+00  0.1600E+02
    -37.276  0.0000E+00  0.1600E+02
    -36.994  0.0000E+00  0.1600E+02
    -36.712  0.0000E+00  0.1600E+02
    -36.430  0.0000E+00  0.1600E+02
    -36.148  0.0000E+00  0.1600E+02
    -35.866  0.0000E+00  0.1600E+02
    -35.584  0.0000E+00  0.1600E+02
    -35.302  0.0000E+00  0.1600E+02
    -35.020  0.0000E+00  0.1600E+02
    -34.738  0.0000E+00  0.1600E+02
    -34.456  0.0000E+00  0.1600E+02
    -34.174  0.0000E+00  0.1600E+02
    -33.892  0.0000E+00  0.1600E+02
    -33.610  0.0000E+00  0.1600E+02
    -33.328  0.0000E+00  0.1600E+02
    -33.046  0.9310E-04  0.1600E+02
    -32.764  0.1419E+02  0.4000E+02
    -32.482  0.0000E+00  0.4000E+02
    -32.200  0.0000E+00  0.4000E+02
    -31.918  0.0000E+00  0.4000E+02
    -31.636  0.0000E+00  0.4000E+02
    -31.354  0.0000E+00  0.4000E+02
    -31.072  0.0000E+00  0.4000E+02
    -30.790  0.0000E+00  0.4000E+02
    -30.508  0.0000E+00  0.4000E+02
    -30.227  0.0000E+00  0.4000E+02
    -29.945  0.0000E+00  0.4000E+02
    -29.663  0.0000E+00  0.4000E+02
    -29.381  0.0000E+00  0.4000E+02
    -29.099  0.0000E+00  0.4000E+02
    -28.817  0.0000E+00  0.4000E+02
    -28.535  0.0000E+00  0.4000E+02
    -28.253  0.0000E+00  0.4000E+02
    -27.971  0.0000E+00  0.4000E+02
    -27.689  0.0000E+00  0.4000E+02
    -27.407  0.0000E+00  0.4000E+02
    -27.125  0.0000E+00  0.4000E+02
    -26.843  0.0000E+00  0.4000E+02
    -26.561  0.0000E+00  0.4000E+02
    -26.279  0.0000E+00  0.4000E+02
    -25.997  0.0000E+00  0.4000E+02
    -25.715  0.0000E+00  0.4000E+02
    -25.433  0.0000E+00  0.4000E+02
    -25.151  0.0000E+00  0.4000E+02
    -24.869  0.0000E+00  0.4000E+02
    -24.587  0.0000E+00  0.4000E+02
    -24.305  0.0000E+00  0.4000E+02
    -24.023  0.0000E+00  0.4000E+02
    -23.741  0.0000E+00  0.4000E+02
    -23.459  0.0000E+00  0.4000E+02
    -23.177  0.0000E+00  0.4000E+02
    -22.895  0.0000E+00  0.4000E+02
    -22.613  0.0000E+00  0.4000E+02
    -22.331  0.0000E+00  0.4000E+02
    -22.049  0.0000E+00  0.4000E+02
    -21.767  0.0000E+00  0.4000E+02
    -21.485  0.0000E+00  0.4000E+02
    -21.203  0.0000E+00  0.4000E+02
    -20.921  0.0000E+00  0.4000E+02
    -20.639  0.6669E-06  0.4000E+02
    -20.357  0.7296E+01  0.5206E+02
    -20.075  0.0000E+00  0.5600E+02
    -19.793  0.0000E+00  0.5600E+02
    -19.511  0.2182E+02  0.6982E+02
    -19.229  0.0000E+00  0.8000E+02
    -18.947  0.0000E+00  0.8000E+02
    -18.665  0.0000E+00  0.8000E+02
    -18.384  0.0000E+00  0.8000E+02
    -18.102  0.0000E+00  0.8000E+02
    -17.820  0.0000E+00  0.8000E+02
    -17.538  0.0000E+00  0.8000E+02
    -17.256  0.0000E+00  0.8000E+02
    -16.974  0.0000E+00  0.8000E+02
    -16.692  0.0000E+00  0.8000E+02
    -16.410  0.0000E+00  0.8000E+02
    -16.128  0.0000E+00  0.8000E+02
    -15.846  0.1706E-07  0.8000E+02
    -15.564  0.4137E+01  0.8267E+02
    -15.282  0.9763E+01  0.8975E+02
    -15.000  0.0000E+00  0.9200E+02
    -14.718  0.2364E+01  0.9400E+02
    -14.436  0.4728E+00  0.9413E+02
    -14.154  0.0000E+00  0.9600E+02
    -13.872  0.0000E+00  0.9600E+02
    -13.590  0.0000E+00  0.9600E+02
    -13.308  0.0000E+00  0.9600E+02
    -13.026  0.0000E+00  0.9600E+02
    -12.744  0.0000E+00  0.9600E+02
    -12.462  0.0000E+00  0.9600E+02
    -12.180  0.0000E+00  0.9600E+02
    -11.898  0.0000E+00  0.9600E+02
    -11.616  0.0000E+00  0.9600E+02
    -11.334  0.0000E+00  0.9600E+02
    -11.052  0.0000E+00  0.9600E+02
    -10.770  0.0000E+00  0.9600E+02
    -10.488  0.0000E+00  0.9600E+02
    -10.206  0.0000E+00  0.9600E+02
     -9.924  0.0000E+00  0.9600E+02
     -9.642  0.0000E+00  0.9600E+02
     -9.360  0.0000E+00  0.9600E+02
     -9.078  0.0000E+00  0.9600E+02
     -8.796  0.0000E+00  0.9600E+02
     -8.514  0.0000E+00  0.9600E+02
     -8.232  0.0000E+00  0.9600E+02
     -7.950  0.0000E+00  0.9600E+02
     -7.668  0.0000E+00  0.9600E+02
     -7.386  0.0000E+00  0.9600E+02
     -7.104  0.0000E+00  0.9600E+02
     -6.823  0.0000E+00  0.9600E+02
     -6.541  0.0000E+00  0.9600E+02
     -6.259  0.0000E+00  0.9600E+02
     -5.977  0.0000E+00  0.9600E+02
     -5.695  0.0000E+00  0.9600E+02
     -5.413  0.0000E+00  0.9600E+02
     -5.131  0.0000E+00  0.9600E+02
     -4.849  0.0000E+00  0.9600E+02
     -4.567  0.0000E+00  0.9600E+02
     -4.285  0.0000E+00  0.9600E+02
     -4.003  0.1763E+00  0.9605E+02
     -3.721  0.4375E+01  0.1059E+03
     -3.439  0.6464E-14  0.1060E+03
     -3.157  0.6096E+01  0.1106E+03
     -2.875  0.5306E+01  0.1161E+03
     -2.593  0.8443E+01  0.1242E+03
     -2.311  0.5657E+01  0.1304E+03
     -2.029  0.7012E+01  0.1370E+03
     -1.747  0.3949E+01  0.1393E+03
     -1.465  0.9253E+01  0.1486E+03
     -1.183  0.1127E+02  0.1571E+03
     -0.901  0.9643E+01  0.1654E+03
     -0.619  0.2364E+01  0.1700E+03
     -0.337  0.4078E+01  0.1726E+03
     -0.055  0.8896E+01  0.1779E+03
      0.227  0.4142E+01  0.1833E+03
      0.509  0.5025E+01  0.1871E+03
      0.791  0.1300E+02  0.1920E+03
      1.073  0.0000E+00  0.1920E+03
      1.355  0.0000E+00  0.1920E+03
      1.637  0.0000E+00  0.1920E+03
      1.919  0.0000E+00  0.1920E+03
      2.201  0.0000E+00  0.1920E+03
      2.483  0.0000E+00  0.1920E+03
      2.765  0.0000E+00  0.1920E+03
      3.047  0.0000E+00  0.1920E+03
      3.329  0.0000E+00  0.1920E+03
      3.611  0.0000E+00  0.1920E+03
      3.893  0.0000E+00  0.1920E+03
      4.175  0.0000E+00  0.1920E+03
      4.457  0.0000E+00  0.1920E+03
      4.739  0.2762E+01  0.1934E+03
      5.020  0.1963E+01  0.1956E+03
      5.302  0.1182E+01  0.1987E+03
      5.584  0.2069E+01  0.1993E+03
      5.866  0.1741E+01  0.2005E+03
      6.148  0.5353E+01  0.2053E+03
      6.430  0.1268E+01  0.2074E+03
      6.712  0.2350E+01  0.2100E+03
      6.994  0.2975E+01  0.2126E+03
      7.276  0.2151E+01  0.2152E+03
      7.558  0.8866E+00  0.2166E+03
      7.840  0.3951E+00  0.2169E+03
      8.122  0.5911E+00  0.2173E+03
      8.404  0.5925E+00  0.2182E+03
      8.686  0.5910E+00  0.2191E+03
      8.968  0.2703E+01  0.2203E+03
      9.250  0.1733E+01  0.2227E+03
      9.532  0.1988E+01  0.2247E+03
      9.814  0.1844E+01  0.2266E+03
     10.096  0.2276E+01  0.2287E+03
     10.378  0.4544E+00  0.2298E+03
     10.660  0.0000E+00  0.2300E+03
     10.942  0.0000E+00  0.2300E+03
     11.224  0.0000E+00  0.2300E+03
     11.506  0.0000E+00  0.2300E+03
     11.788  0.0000E+00  0.2300E+03
     12.070  0.0000E+00  0.2300E+03
     12.352  0.0000E+00  0.2300E+03
     12.634  0.0000E+00  0.2300E+03
     12.916  0.0000E+00  0.2300E+03
     13.198  0.0000E+00  0.2300E+03
     13.480  0.0000E+00  0.2300E+03
     13.762  0.0000E+00  0.2300E+03
     14.044  0.0000E+00  0.2300E+03
     14.326  0.0000E+00  0.2300E+03
