       N       E                     dE             d eps       ncg     rms          rms(c)
DAV:   1     0.349995935194E+04    0.35000E+04   -0.10411E+05  5576   0.188E+03
DAV:   2     0.408487488329E+03   -0.30915E+04   -0.28960E+04  5560   0.719E+02
DAV:   3    -0.204545649665E+03   -0.61303E+03   -0.60012E+03  8761   0.342E+02
DAV:   4    -0.239329439883E+03   -0.34784E+02   -0.34662E+02  8736   0.974E+01
DAV:   5    -0.239870663967E+03   -0.54122E+00   -0.54039E+00  8592   0.140E+01    0.117E+02
DAV:   6    -0.198660725533E+03    0.41210E+02   -0.17887E+02  8616   0.621E+01    0.195E+02
DAV:   7    -0.202119897518E+03   -0.34592E+01   -0.12374E+01  8536   0.169E+01    0.176E+02
DAV:   8    -0.206239380148E+03   -0.41195E+01   -0.28908E+01  7984   0.262E+01    0.366E+02
DAV:   9    -0.196842824136E+03    0.93966E+01   -0.30553E+01  7736   0.233E+01    0.245E+02
DAV:  10    -0.197239736200E+03   -0.39691E+00   -0.45535E+00  8664   0.102E+01    0.187E+02
DAV:  11    -0.197034815359E+03    0.20492E+00   -0.42507E-01  8736   0.356E+00    0.128E+02
DAV:  12    -0.196940777181E+03    0.94038E-01   -0.24651E-01  8336   0.306E+00    0.112E+01
DAV:  13    -0.196932048637E+03    0.87285E-02   -0.56511E-02  9056   0.117E+00    0.109E+00
DAV:  14    -0.196933143962E+03   -0.10953E-02   -0.11981E-02  8552   0.606E-01    0.143E+00
DAV:  15    -0.196933172601E+03   -0.28639E-04   -0.26214E-03  8712   0.310E-01    0.108E+00
DAV:  16    -0.196933197076E+03   -0.24475E-04   -0.70482E-04  8616   0.144E-01    0.137E-01
DAV:  17    -0.196933235321E+03   -0.38245E-04   -0.17310E-04  9456   0.808E-02    0.309E-01
DAV:  18    -0.196933241124E+03   -0.58025E-05   -0.80434E-05  7656   0.407E-02    0.898E-02
DAV:  19    -0.196933240061E+03    0.10629E-05   -0.28254E-05  8656   0.274E-02    0.120E-01
DAV:  20    -0.196933239742E+03    0.31900E-06   -0.16535E-05  7976   0.168E-02    0.870E-02
DAV:  21    -0.196933239799E+03   -0.56883E-07   -0.25216E-06  8448   0.908E-03    0.920E-03
DAV:  22    -0.196933239950E+03   -0.15129E-06   -0.50674E-07  7088   0.299E-03    0.440E-03
DAV:  23    -0.196933239976E+03   -0.25779E-07   -0.38344E-08  5240   0.114E-03    0.570E-04
DAV:  24    -0.196933239969E+03    0.72687E-08   -0.24331E-08  4520   0.779E-04
   1 F= -.19693324E+03 E0= -.19693324E+03  d E =-.133038E-45
DAV:   1    -0.580679249244E+04   -0.58068E+04   -0.16882E+00  5680   0.554E+00
DAV:   2    -0.580680849925E+04   -0.16007E-01   -0.16007E-01  8064   0.179E+00
DAV:   3    -0.580680887528E+04   -0.37602E-03   -0.37602E-03  8960   0.296E-01
DAV:   4    -0.580680888579E+04   -0.10511E-04   -0.10511E-04  8936   0.468E-02
DAV:   5    -0.580680888618E+04   -0.39427E-06   -0.39436E-06  8920   0.903E-03
DAV:   6    -0.580680888620E+04   -0.17933E-07   -0.17777E-07  6760   0.182E-03
DAV:   7    -0.580680888620E+04   -0.82036E-09   -0.91512E-09  4520   0.500E-04
       N       E                     dE             d eps       ncg     rms
RMM:   1    -0.554533999300E+03   -0.55453E+03   -0.14238E+03  6211   0.353E+02
RMM:   2    -0.665489983754E+03   -0.11096E+03   -0.35563E+02 10099   0.447E+01
RMM:   3    -0.675755095156E+03   -0.10265E+02   -0.48818E+01 10833   0.122E+01
RMM:   4    -0.677103601640E+03   -0.13485E+01   -0.37211E+00 11043   0.346E+00
RMM:   5    -0.677244977148E+03   -0.14138E+00   -0.45037E-01 11205   0.110E+00
RMM:   6    -0.677263425742E+03   -0.18449E-01   -0.70088E-02 11222   0.377E-01
RMM:   7    -0.677266532965E+03   -0.31072E-02   -0.12056E-02 11466   0.134E-01
RMM:   8    -0.677267069660E+03   -0.53669E-03   -0.23812E-03 11240   0.475E-02
RMM:   9    -0.677267160778E+03   -0.91117E-04   -0.26474E-04 10917   0.170E-02
RMM:  10    -0.677267172068E+03   -0.11291E-04   -0.49840E-05  9839   0.656E-03
RMM:  11    -0.677267174284E+03   -0.22159E-05   -0.80887E-06  7946   0.255E-03
RMM:  12    -0.677267174655E+03   -0.37060E-06   -0.17349E-06  6269   0.110E-03
RMM:  13    -0.677267174728E+03   -0.73829E-07   -0.25566E-07  5047   0.499E-04
RMM:  14    -0.677267174739E+03   -0.10312E-07   -0.44281E-08  4002   0.302E-04
RMM:  15    -0.677267174741E+03   -0.21458E-08   -0.78907E-09  3156   0.236E-04
DAV:   1    -0.580688067955E+04   -0.58069E+04   -0.29357E-09  3552   0.408E-04
DAV:   2    -0.580688067955E+04   -0.12460E-09   -0.10426E-09  3552   0.258E-04
       N       E                     dE             d eps       ncg     rms
RMM:   1    -0.554460784997E+03   -0.55446E+03   -0.14227E+03  6209   0.353E+02
RMM:   2    -0.665486191031E+03   -0.11103E+03   -0.35602E+02 10096   0.446E+01
RMM:   3    -0.675772788880E+03   -0.10287E+02   -0.48895E+01 10834   0.121E+01
RMM:   4    -0.677123358645E+03   -0.13506E+01   -0.37160E+00 11043   0.346E+00
RMM:   5    -0.677265350790E+03   -0.14199E+00   -0.45299E-01 11210   0.110E+00
RMM:   6    -0.677283783025E+03   -0.18432E-01   -0.69800E-02 11232   0.376E-01
RMM:   7    -0.677286879232E+03   -0.30962E-02   -0.11999E-02 11490   0.134E-01
RMM:   8    -0.677287406789E+03   -0.52756E-03   -0.23555E-03 11215   0.474E-02
RMM:   9    -0.677287496742E+03   -0.89953E-04   -0.25339E-04 10923   0.170E-02
RMM:  10    -0.677287507945E+03   -0.11204E-04   -0.51687E-05  9826   0.661E-03
RMM:  11    -0.677287510245E+03   -0.22997E-05   -0.82104E-06  7954   0.257E-03
RMM:  12    -0.677287510616E+03   -0.37054E-06   -0.17465E-06  6261   0.110E-03
RMM:  13    -0.677287510692E+03   -0.76272E-07   -0.26614E-07  5073   0.503E-04
RMM:  14    -0.677287510702E+03   -0.10345E-07   -0.44311E-08  4039   0.303E-04
RMM:  15    -0.677287510704E+03   -0.21415E-08   -0.78573E-09  3157   0.235E-04
DAV:   1    -0.580693593156E+04   -0.58069E+04   -0.16878E+00  5680   0.554E+00
DAV:   2    -0.580695197726E+04   -0.16046E-01   -0.16046E-01  8080   0.179E+00
DAV:   3    -0.580695233580E+04   -0.35854E-03   -0.35854E-03  9040   0.293E-01
DAV:   4    -0.580695234538E+04   -0.95816E-05   -0.95814E-05  8912   0.456E-02
DAV:   5    -0.580695234575E+04   -0.37018E-06   -0.37019E-06  8928   0.886E-03
DAV:   6    -0.580695234577E+04   -0.16752E-07   -0.16759E-07  6760   0.180E-03
DAV:   7    -0.580695234577E+04   -0.10477E-08   -0.85832E-09  4448   0.504E-04
       N       E                     dE             d eps       ncg     rms
RMM:   1    -0.554534594861E+03   -0.55453E+03   -0.14234E+03  6207   0.353E+02
RMM:   2    -0.665504841764E+03   -0.11097E+03   -0.35583E+02 10094   0.447E+01
RMM:   3    -0.675780159089E+03   -0.10275E+02   -0.48779E+01 10837   0.122E+01
RMM:   4    -0.677126619099E+03   -0.13465E+01   -0.37045E+00 11047   0.345E+00
RMM:   5    -0.677268090078E+03   -0.14147E+00   -0.45080E-01 11205   0.110E+00
RMM:   6    -0.677286536051E+03   -0.18446E-01   -0.70113E-02 11237   0.376E-01
RMM:   7    -0.677289647038E+03   -0.31110E-02   -0.12026E-02 11462   0.134E-01
RMM:   8    -0.677290171873E+03   -0.52484E-03   -0.23107E-03 11252   0.473E-02
RMM:   9    -0.677290260361E+03   -0.88488E-04   -0.25929E-04 10942   0.170E-02
RMM:  10    -0.677290271780E+03   -0.11419E-04   -0.52703E-05  9764   0.661E-03
RMM:  11    -0.677290274119E+03   -0.23387E-05   -0.83123E-06  7976   0.257E-03
RMM:  12    -0.677290274492E+03   -0.37369E-06   -0.17567E-06  6282   0.110E-03
RMM:  13    -0.677290274568E+03   -0.75668E-07   -0.26107E-07  5082   0.497E-04
RMM:  14    -0.677290274578E+03   -0.10026E-07   -0.43902E-08  4032   0.299E-04
RMM:  15    -0.677290274580E+03   -0.19920E-08   -0.67762E-09  3134   0.232E-04
DAV:   1    -0.580681271679E+04   -0.58068E+04   -0.17293E+00  5661   0.555E+00
DAV:   2    -0.580682988158E+04   -0.17165E-01   -0.17165E-01  8080   0.179E+00
DAV:   3    -0.580683055685E+04   -0.67527E-03   -0.67527E-03  8600   0.322E-01
DAV:   4    -0.580683057555E+04   -0.18694E-04   -0.18694E-04  9032   0.553E-02
DAV:   5    -0.580683057610E+04   -0.55789E-06   -0.55774E-06  8576   0.106E-02
DAV:   6    -0.580683057613E+04   -0.27487E-07   -0.27439E-07  7232   0.222E-03
DAV:   7    -0.580683057613E+04   -0.10150E-08   -0.10692E-08  4552   0.560E-04
       N       E                     dE             d eps       ncg     rms
RMM:   1    -0.575058471102E+03   -0.57506E+03   -0.13658E+03  6421   0.321E+02
RMM:   2    -0.668620348882E+03   -0.93562E+02   -0.30602E+02 10337   0.427E+01
RMM:   3    -0.676031789537E+03   -0.74114E+01   -0.30117E+01 10884   0.109E+01
RMM:   4    -0.677030549146E+03   -0.99876E+00   -0.31875E+00 11130   0.326E+00
RMM:   5    -0.677141974291E+03   -0.11143E+00   -0.28079E-01 11515   0.100E+00
RMM:   6    -0.677153601014E+03   -0.11627E-01   -0.40983E-02 11273   0.308E-01
RMM:   7    -0.677155184903E+03   -0.15839E-02   -0.54114E-03 11524   0.106E-01
RMM:   8    -0.677155405726E+03   -0.22082E-03   -0.90003E-04 11400   0.359E-02
RMM:   9    -0.677155441410E+03   -0.35683E-04   -0.13330E-04 10878   0.129E-02
RMM:  10    -0.677155447127E+03   -0.57170E-05   -0.25742E-05  9414   0.489E-03
RMM:  11    -0.677155448167E+03   -0.10402E-05   -0.42103E-06  7571   0.196E-03
RMM:  12    -0.677155448354E+03   -0.18658E-06   -0.86081E-07  6230   0.854E-04
RMM:  13    -0.677155448388E+03   -0.33852E-07   -0.14007E-07  5019   0.432E-04
RMM:  14    -0.677155448394E+03   -0.61552E-08   -0.28347E-08  3742   0.277E-04
DAV:   1    -0.580688067955E+04   -0.58069E+04   -0.29343E-09  3552   0.408E-04
DAV:   2    -0.580688067955E+04    0.40018E-10   -0.10638E-09  3552   0.258E-04
       N       E                     dE             d eps       ncg     rms
RMM:   1    -0.575288908509E+03   -0.57529E+03   -0.13693E+03  6430   0.321E+02
RMM:   2    -0.668615042030E+03   -0.93326E+02   -0.30434E+02 10337   0.425E+01
RMM:   3    -0.676013265888E+03   -0.73982E+01   -0.29943E+01 10886   0.108E+01
RMM:   4    -0.677006020141E+03   -0.99275E+00   -0.31523E+00 11130   0.325E+00
RMM:   5    -0.677115763034E+03   -0.10974E+00   -0.27746E-01 11518   0.100E+00
RMM:   6    -0.677127239350E+03   -0.11476E-01   -0.40469E-02 11259   0.306E-01
RMM:   7    -0.677128795474E+03   -0.15561E-02   -0.52446E-03 11544   0.106E-01
RMM:   8    -0.677129008318E+03   -0.21284E-03   -0.85962E-04 11410   0.355E-02
RMM:   9    -0.677129042818E+03   -0.34500E-04   -0.13019E-04 10908   0.128E-02
RMM:  10    -0.677129048526E+03   -0.57080E-05   -0.25941E-05  9347   0.486E-03
RMM:  11    -0.677129049575E+03   -0.10492E-05   -0.42216E-06  7600   0.195E-03
RMM:  12    -0.677129049766E+03   -0.19052E-06   -0.88733E-07  6252   0.854E-04
RMM:  13    -0.677129049801E+03   -0.35063E-07   -0.14497E-07  4994   0.430E-04
RMM:  14    -0.677129049807E+03   -0.64073E-08   -0.29297E-08  3711   0.276E-04
DAV:   1    -0.580691275055E+04   -0.58069E+04   -0.17273E+00  5661   0.555E+00
DAV:   2    -0.580692996798E+04   -0.17217E-01   -0.17217E-01  8072   0.180E+00
DAV:   3    -0.580693063720E+04   -0.66922E-03   -0.66922E-03  8544   0.321E-01
DAV:   4    -0.580693065633E+04   -0.19129E-04   -0.19128E-04  9048   0.562E-02
DAV:   5    -0.580693065697E+04   -0.63331E-06   -0.63352E-06  8552   0.111E-02
DAV:   6    -0.580693065699E+04   -0.29422E-07   -0.29350E-07  7128   0.227E-03
DAV:   7    -0.580693065700E+04   -0.12997E-08   -0.12686E-08  4608   0.585E-04
       N       E                     dE             d eps       ncg     rms
RMM:   1    -0.575475284438E+03   -0.57548E+03   -0.13728E+03  6436   0.321E+02
RMM:   2    -0.668604820695E+03   -0.93130E+02   -0.30333E+02 10334   0.425E+01
RMM:   3    -0.675971766279E+03   -0.73669E+01   -0.29886E+01 10889   0.108E+01
RMM:   4    -0.676962382566E+03   -0.99062E+00   -0.31280E+00 11118   0.324E+00
RMM:   5    -0.677071646818E+03   -0.10926E+00   -0.27698E-01 11499   0.100E+00
RMM:   6    -0.677083077277E+03   -0.11430E-01   -0.40094E-02 11259   0.307E-01
RMM:   7    -0.677084638558E+03   -0.15613E-02   -0.52432E-03 11503   0.106E-01
RMM:   8    -0.677084858103E+03   -0.21955E-03   -0.88679E-04 11414   0.358E-02
RMM:   9    -0.677084894194E+03   -0.36090E-04   -0.13560E-04 10941   0.129E-02
RMM:  10    -0.677084900204E+03   -0.60105E-05   -0.27365E-05  9442   0.492E-03
RMM:  11    -0.677084901323E+03   -0.11187E-05   -0.45632E-06  7565   0.199E-03
RMM:  12    -0.677084901529E+03   -0.20587E-06   -0.96559E-07  6254   0.870E-04
RMM:  13    -0.677084901567E+03   -0.38226E-07   -0.15774E-07  5018   0.437E-04
RMM:  14    -0.677084901574E+03   -0.70502E-08   -0.32603E-08  3708   0.279E-04
       N       E                     dE             d eps       ncg     rms
RLQ:   1    -0.130915230796E+02   -0.13092E+02   -0.15077E+03  5520   0.356E+02
RLQ:   2    -0.171289935455E+02   -0.40375E+01   -0.13000E+01 10913   0.586E+00
RLQ:   3    -0.174214459019E+02   -0.29245E+00   -0.80361E-01 10451   0.145E+00
RLQ:   4    -0.174521840563E+02   -0.30738E-01   -0.10052E-01 10844   0.468E-01
RLQ:   5    -0.174560707051E+02   -0.38866E-02   -0.11020E-02 10120   0.149E-01
RLQ:   6    -0.174565001915E+02   -0.42949E-03   -0.12970E-03 10320   0.500E-02
RLQ:   7    -0.174565576308E+02   -0.57439E-04   -0.19783E-04 10328   0.168E-02
RLQ:   8    -0.174565644558E+02   -0.68250E-05   -0.21709E-05 10134   0.577E-03
RLQ:   9    -0.174565654082E+02   -0.95241E-06   -0.42198E-06  9024   0.208E-03
RLQ:  10    -0.174565655354E+02   -0.12716E-06   -0.43306E-07  6969   0.734E-04
RLQ:  11    -0.174565655546E+02   -0.19251E-07   -0.88976E-08  4586   0.348E-04
RLQ:  12    -0.174565655572E+02   -0.26090E-08   -0.97362E-09  3302   0.240E-04
DAV:   1    -0.580687553293E+04   -0.58069E+04   -0.16981E+00  5682   0.554E+00
DAV:   2    -0.580689109699E+04   -0.15564E-01   -0.15564E-01  8080   0.178E+00
DAV:   3    -0.580689154444E+04   -0.44744E-03   -0.44744E-03  8680   0.300E-01
DAV:   4    -0.580689155712E+04   -0.12685E-04   -0.12685E-04  8832   0.501E-02
DAV:   5    -0.580689155759E+04   -0.47233E-06   -0.47232E-06  8840   0.101E-02
DAV:   6    -0.580689155761E+04   -0.21202E-07   -0.20992E-07  7088   0.213E-03
DAV:   7    -0.580689155761E+04   -0.83219E-09   -0.96057E-09  4488   0.555E-04
       N       E                     dE             d eps       ncg     rms
RMM:   1    -0.554453533957E+03   -0.55445E+03   -0.14243E+03  6212   0.353E+02
RMM:   2    -0.665380522683E+03   -0.11093E+03   -0.35526E+02 10099   0.447E+01
RMM:   3    -0.675609819219E+03   -0.10229E+02   -0.48621E+01 10833   0.122E+01
RMM:   4    -0.676950005728E+03   -0.13402E+01   -0.37191E+00 11048   0.346E+00
RMM:   5    -0.677091874431E+03   -0.14187E+00   -0.45072E-01 11199   0.110E+00
RMM:   6    -0.677110426655E+03   -0.18552E-01   -0.70610E-02 11233   0.378E-01
RMM:   7    -0.677113577450E+03   -0.31508E-02   -0.12470E-02 11472   0.134E-01
RMM:   8    -0.677114118235E+03   -0.54079E-03   -0.23427E-03 11224   0.473E-02
RMM:   9    -0.677114208667E+03   -0.90432E-04   -0.25629E-04 10930   0.169E-02
RMM:  10    -0.677114219654E+03   -0.10987E-04   -0.48827E-05  9794   0.655E-03
RMM:  11    -0.677114221917E+03   -0.22626E-05   -0.84109E-06  8000   0.258E-03
RMM:  12    -0.677114222296E+03   -0.37924E-06   -0.17659E-06  6263   0.110E-03
RMM:  13    -0.677114222372E+03   -0.76049E-07   -0.26340E-07  5043   0.501E-04
RMM:  14    -0.677114222383E+03   -0.10387E-07   -0.44378E-08  4017   0.302E-04
RMM:  15    -0.677114222385E+03   -0.21492E-08   -0.78270E-09  3158   0.235E-04
DAV:   1    -0.580688067955E+04   -0.58069E+04   -0.29392E-09  3552   0.408E-04
DAV:   2    -0.580688067955E+04   -0.18554E-09   -0.10623E-09  3552   0.258E-04
       N       E                     dE             d eps       ncg     rms
RMM:   1    -0.554460784997E+03   -0.55446E+03   -0.14227E+03  6209   0.353E+02
RMM:   2    -0.665486191031E+03   -0.11103E+03   -0.35602E+02 10096   0.446E+01
RMM:   3    -0.675772788880E+03   -0.10287E+02   -0.48895E+01 10834   0.121E+01
RMM:   4    -0.677123358645E+03   -0.13506E+01   -0.37160E+00 11043   0.346E+00
RMM:   5    -0.677265350790E+03   -0.14199E+00   -0.45299E-01 11210   0.110E+00
RMM:   6    -0.677283783025E+03   -0.18432E-01   -0.69800E-02 11232   0.376E-01
RMM:   7    -0.677286879232E+03   -0.30962E-02   -0.11999E-02 11490   0.134E-01
RMM:   8    -0.677287406789E+03   -0.52756E-03   -0.23555E-03 11215   0.474E-02
RMM:   9    -0.677287496742E+03   -0.89953E-04   -0.25339E-04 10923   0.170E-02
RMM:  10    -0.677287507945E+03   -0.11204E-04   -0.51687E-05  9826   0.661E-03
RMM:  11    -0.677287510245E+03   -0.22997E-05   -0.82104E-06  7954   0.257E-03
RMM:  12    -0.677287510616E+03   -0.37054E-06   -0.17465E-06  6261   0.110E-03
RMM:  13    -0.677287510692E+03   -0.76272E-07   -0.26614E-07  5073   0.503E-04
RMM:  14    -0.677287510702E+03   -0.10345E-07   -0.44311E-08  4039   0.303E-04
RMM:  15    -0.677287510704E+03   -0.21414E-08   -0.78573E-09  3157   0.235E-04
DAV:   1    -0.580685365007E+04   -0.58069E+04   -0.16981E+00  5671   0.554E+00
DAV:   2    -0.580686918133E+04   -0.15531E-01   -0.15531E-01  8064   0.178E+00
DAV:   3    -0.580686966181E+04   -0.48048E-03   -0.48047E-03  8576   0.306E-01
DAV:   4    -0.580686967557E+04   -0.13761E-04   -0.13761E-04  8904   0.522E-02
DAV:   5    -0.580686967607E+04   -0.50223E-06   -0.50237E-06  8864   0.104E-02
DAV:   6    -0.580686967610E+04   -0.22063E-07   -0.21964E-07  6992   0.216E-03
DAV:   7    -0.580686967610E+04   -0.91859E-09   -0.10025E-08  4544   0.555E-04
       N       E                     dE             d eps       ncg     rms
RMM:   1    -0.554678079170E+03   -0.55468E+03   -0.14235E+03  6211   0.353E+02
RMM:   2    -0.665637482371E+03   -0.11096E+03   -0.35601E+02 10097   0.447E+01
RMM:   3    -0.675928472901E+03   -0.10291E+02   -0.48974E+01 10837   0.122E+01
RMM:   4    -0.677279847422E+03   -0.13514E+01   -0.37122E+00 11045   0.345E+00
RMM:   5    -0.677421144218E+03   -0.14130E+00   -0.45006E-01 11219   0.109E+00
RMM:   6    -0.677439474865E+03   -0.18331E-01   -0.69663E-02 11225   0.375E-01
RMM:   7    -0.677442574884E+03   -0.31000E-02   -0.12044E-02 11459   0.133E-01
RMM:   8    -0.677443099998E+03   -0.52511E-03   -0.23115E-03 11229   0.473E-02
RMM:   9    -0.677443188657E+03   -0.88659E-04   -0.26020E-04 10930   0.170E-02
RMM:  10    -0.677443200086E+03   -0.11429E-04   -0.52391E-05  9861   0.661E-03
RMM:  11    -0.677443202398E+03   -0.23126E-05   -0.80979E-06  7944   0.255E-03
RMM:  12    -0.677443202764E+03   -0.36607E-06   -0.17257E-06  6239   0.110E-03
RMM:  13    -0.677443202839E+03   -0.75084E-07   -0.26747E-07  5074   0.500E-04
RMM:  14    -0.677443202850E+03   -0.10408E-07   -0.44840E-08  4041   0.301E-04
RMM:  15    -0.677443202852E+03   -0.20758E-08   -0.74751E-09  3146   0.233E-04
DAV:   1    -0.580681271679E+04   -0.58068E+04   -0.17293E+00  5661   0.555E+00
DAV:   2    -0.580682988158E+04   -0.17165E-01   -0.17165E-01  8080   0.179E+00
DAV:   3    -0.580683055685E+04   -0.67527E-03   -0.67527E-03  8600   0.322E-01
DAV:   4    -0.580683057555E+04   -0.18694E-04   -0.18694E-04  9032   0.553E-02
DAV:   5    -0.580683057610E+04   -0.55782E-06   -0.55775E-06  8576   0.106E-02
DAV:   6    -0.580683057613E+04   -0.27249E-07   -0.27441E-07  7232   0.222E-03
DAV:   7    -0.580683057613E+04   -0.12578E-08   -0.10686E-08  4552   0.560E-04
       N       E                     dE             d eps       ncg     rms
RMM:   1    -0.579480304593E+03   -0.57948E+03   -0.13288E+03  6550   0.314E+02
RMM:   2    -0.669552941397E+03   -0.90073E+02   -0.28357E+02 10382   0.413E+01
RMM:   3    -0.676480742397E+03   -0.69278E+01   -0.26083E+01 10918   0.105E+01
RMM:   4    -0.677249323494E+03   -0.76858E+00   -0.23383E+00 11245   0.305E+00
RMM:   5    -0.677327468564E+03   -0.78145E-01   -0.21234E-01 11485   0.949E-01
RMM:   6    -0.677336132790E+03   -0.86642E-02   -0.29881E-02 11289   0.287E-01
RMM:   7    -0.677337285802E+03   -0.11530E-02   -0.38986E-03 11507   0.988E-02
RMM:   8    -0.677337454329E+03   -0.16853E-03   -0.69482E-04 11353   0.326E-02
RMM:   9    -0.677337481189E+03   -0.26860E-04   -0.93892E-05 10966   0.117E-02
RMM:  10    -0.677337485372E+03   -0.41824E-05   -0.17964E-05  9230   0.428E-03
RMM:  11    -0.677337486166E+03   -0.79461E-06   -0.31127E-06  7554   0.171E-03
RMM:  12    -0.677337486302E+03   -0.13532E-06   -0.56762E-07  6164   0.742E-04
RMM:  13    -0.677337486329E+03   -0.27403E-07   -0.11279E-07  4798   0.384E-04
RMM:  14    -0.677337486333E+03   -0.42917E-08   -0.16142E-08  3485   0.257E-04
DAV:   1    -0.580688067955E+04   -0.58069E+04   -0.29367E-09  3552   0.408E-04
DAV:   2    -0.580688067955E+04   -0.19736E-09   -0.10651E-09  3552   0.258E-04
       N       E                     dE             d eps       ncg     rms
RMM:   1    -0.579318145341E+03   -0.57932E+03   -0.13263E+03  6544   0.314E+02
RMM:   2    -0.669485237034E+03   -0.90167E+02   -0.28373E+02 10375   0.413E+01
RMM:   3    -0.676465131546E+03   -0.69799E+01   -0.26350E+01 10914   0.105E+01
RMM:   4    -0.677240911657E+03   -0.77578E+00   -0.23439E+00 11255   0.305E+00
RMM:   5    -0.677318667997E+03   -0.77756E-01   -0.21118E-01 11479   0.948E-01
RMM:   6    -0.677327235702E+03   -0.85677E-02   -0.29368E-02 11299   0.287E-01
RMM:   7    -0.677328375497E+03   -0.11398E-02   -0.38674E-03 11497   0.990E-02
RMM:   8    -0.677328544401E+03   -0.16890E-03   -0.68525E-04 11357   0.326E-02
RMM:   9    -0.677328571604E+03   -0.27203E-04   -0.94894E-05 10982   0.118E-02
RMM:  10    -0.677328575853E+03   -0.42487E-05   -0.17965E-05  9176   0.430E-03
RMM:  11    -0.677328576667E+03   -0.81384E-06   -0.31986E-06  7573   0.173E-03
RMM:  12    -0.677328576805E+03   -0.13866E-06   -0.57744E-07  6120   0.744E-04
RMM:  13    -0.677328576833E+03   -0.28086E-07   -0.11486E-07  4808   0.389E-04
RMM:  14    -0.677328576838E+03   -0.45670E-08   -0.17821E-08  3496   0.260E-04
DAV:   1    -0.580691275055E+04   -0.58069E+04   -0.17273E+00  5661   0.555E+00
DAV:   2    -0.580692996798E+04   -0.17217E-01   -0.17217E-01  8072   0.180E+00
DAV:   3    -0.580693063720E+04   -0.66922E-03   -0.66922E-03  8544   0.321E-01
DAV:   4    -0.580693065633E+04   -0.19129E-04   -0.19128E-04  9048   0.562E-02
DAV:   5    -0.580693065697E+04   -0.63354E-06   -0.63352E-06  8552   0.111E-02
DAV:   6    -0.580693065699E+04   -0.29398E-07   -0.29350E-07  7128   0.227E-03
DAV:   7    -0.580693065700E+04   -0.11341E-08   -0.12689E-08  4608   0.585E-04
       N       E                     dE             d eps       ncg     rms
RMM:   1    -0.579086210355E+03   -0.57909E+03   -0.13235E+03  6538   0.314E+02
RMM:   2    -0.669427335513E+03   -0.90341E+02   -0.28482E+02 10374   0.414E+01
RMM:   3    -0.676425017184E+03   -0.69977E+01   -0.26767E+01 10907   0.106E+01
RMM:   4    -0.677213111450E+03   -0.78809E+00   -0.23540E+00 11242   0.307E+00
RMM:   5    -0.677291731720E+03   -0.78620E-01   -0.21392E-01 11478   0.953E-01
RMM:   6    -0.677300513171E+03   -0.87815E-02   -0.29827E-02 11298   0.289E-01
RMM:   7    -0.677301682765E+03   -0.11696E-02   -0.39001E-03 11495   0.998E-02
RMM:   8    -0.677301853675E+03   -0.17091E-03   -0.68041E-04 11320   0.329E-02
RMM:   9    -0.677301881212E+03   -0.27537E-04   -0.96351E-05 10997   0.119E-02
RMM:  10    -0.677301885625E+03   -0.44133E-05   -0.18624E-05  9218   0.434E-03
RMM:  11    -0.677301886463E+03   -0.83858E-06   -0.32334E-06  7575   0.173E-03
RMM:  12    -0.677301886605E+03   -0.14182E-06   -0.59075E-07  6115   0.746E-04
RMM:  13    -0.677301886634E+03   -0.28529E-07   -0.11524E-07  4750   0.387E-04
RMM:  14    -0.677301886638E+03   -0.45778E-08   -0.17854E-08  3501   0.260E-04
       N       E                     dE             d eps       ncg     rms
RLQ:   1    -0.131061695883E+02   -0.13106E+02   -0.15110E+03  5520   0.353E+02
RLQ:   2    -0.171520291933E+02   -0.40459E+01   -0.13040E+01 10935   0.579E+00
RLQ:   3    -0.174461698044E+02   -0.29414E+00   -0.80622E-01 10378   0.144E+00
RLQ:   4    -0.174770626734E+02   -0.30893E-01   -0.10236E-01 10826   0.469E-01
RLQ:   5    -0.174811438267E+02   -0.40812E-02   -0.11489E-02 10028   0.147E-01
RLQ:   6    -0.174816148052E+02   -0.47098E-03   -0.14792E-03 10338   0.507E-02
RLQ:   7    -0.174816809640E+02   -0.66159E-04   -0.23827E-04 10242   0.168E-02
RLQ:   8    -0.174816884364E+02   -0.74724E-05   -0.22185E-05 10172   0.568E-03
RLQ:   9    -0.174816894440E+02   -0.10076E-05   -0.45782E-06  9240   0.204E-03
RLQ:  10    -0.174816895724E+02   -0.12836E-06   -0.41778E-07  6765   0.708E-04
RLQ:  11    -0.174816895921E+02   -0.19670E-07   -0.95101E-08  4468   0.347E-04
RLQ:  12    -0.174816895950E+02   -0.29359E-08   -0.10179E-08  3326   0.242E-04
DAV:   1    -0.580687553293E+04   -0.58069E+04   -0.16981E+00  5682   0.554E+00
DAV:   2    -0.580689109699E+04   -0.15564E-01   -0.15564E-01  8080   0.178E+00
DAV:   3    -0.580689154444E+04   -0.44744E-03   -0.44744E-03  8680   0.300E-01
DAV:   4    -0.580689155712E+04   -0.12685E-04   -0.12685E-04  8832   0.501E-02
DAV:   5    -0.580689155759E+04   -0.47233E-06   -0.47232E-06  8840   0.101E-02
DAV:   6    -0.580689155761E+04   -0.21014E-07   -0.20993E-07  7088   0.213E-03
DAV:   7    -0.580689155761E+04   -0.85493E-09   -0.96175E-09  4488   0.555E-04
       N       E                     dE             d eps       ncg     rms
RMM:   1    -0.575255267222E+03   -0.57526E+03   -0.13695E+03  6431   0.321E+02
RMM:   2    -0.668581685098E+03   -0.93326E+02   -0.30446E+02 10335   0.426E+01
RMM:   3    -0.675987385065E+03   -0.74057E+01   -0.30133E+01 10887   0.108E+01
RMM:   4    -0.676987830506E+03   -0.10004E+01   -0.31686E+00 11127   0.326E+00
RMM:   5    -0.677099073491E+03   -0.11124E+00   -0.28085E-01 11509   0.100E+00
RMM:   6    -0.677110700981E+03   -0.11627E-01   -0.40899E-02 11268   0.308E-01
RMM:   7    -0.677112287770E+03   -0.15868E-02   -0.53624E-03 11498   0.106E-01
RMM:   8    -0.677112505482E+03   -0.21771E-03   -0.88077E-04 11428   0.358E-02
RMM:   9    -0.677112540940E+03   -0.35458E-04   -0.13333E-04 10953   0.129E-02
RMM:  10    -0.677112546778E+03   -0.58379E-05   -0.26413E-05  9421   0.487E-03
RMM:  11    -0.677112547835E+03   -0.10579E-05   -0.42786E-06  7591   0.195E-03
RMM:  12    -0.677112548027E+03   -0.19196E-06   -0.89581E-07  6253   0.852E-04
RMM:  13    -0.677112548062E+03   -0.35046E-07   -0.14650E-07  4986   0.427E-04
RMM:  14    -0.677112548069E+03   -0.64381E-08   -0.29075E-08  3680   0.275E-04
DAV:   1    -0.580688067955E+04   -0.58069E+04   -0.29303E-09  3552   0.408E-04
DAV:   2    -0.580688067955E+04   -0.23829E-09   -0.10623E-09  3552   0.258E-04
       N       E                     dE             d eps       ncg     rms
RMM:   1    -0.575288908509E+03   -0.57529E+03   -0.13693E+03  6430   0.321E+02
RMM:   2    -0.668615042030E+03   -0.93326E+02   -0.30434E+02 10337   0.425E+01
RMM:   3    -0.676013265888E+03   -0.73982E+01   -0.29943E+01 10886   0.108E+01
RMM:   4    -0.677006020141E+03   -0.99275E+00   -0.31523E+00 11130   0.325E+00
RMM:   5    -0.677115763034E+03   -0.10974E+00   -0.27746E-01 11518   0.100E+00
RMM:   6    -0.677127239350E+03   -0.11476E-01   -0.40469E-02 11259   0.306E-01
RMM:   7    -0.677128795474E+03   -0.15561E-02   -0.52446E-03 11544   0.106E-01
RMM:   8    -0.677129008318E+03   -0.21284E-03   -0.85962E-04 11410   0.355E-02
RMM:   9    -0.677129042818E+03   -0.34500E-04   -0.13019E-04 10908   0.128E-02
RMM:  10    -0.677129048526E+03   -0.57080E-05   -0.25941E-05  9347   0.486E-03
RMM:  11    -0.677129049575E+03   -0.10492E-05   -0.42216E-06  7600   0.195E-03
RMM:  12    -0.677129049766E+03   -0.19052E-06   -0.88733E-07  6252   0.854E-04
RMM:  13    -0.677129049801E+03   -0.35063E-07   -0.14497E-07  4994   0.430E-04
RMM:  14    -0.677129049807E+03   -0.64074E-08   -0.29297E-08  3711   0.276E-04
DAV:   1    -0.580685365007E+04   -0.58069E+04   -0.16981E+00  5671   0.554E+00
DAV:   2    -0.580686918133E+04   -0.15531E-01   -0.15531E-01  8064   0.178E+00
DAV:   3    -0.580686966181E+04   -0.48048E-03   -0.48047E-03  8576   0.306E-01
DAV:   4    -0.580686967557E+04   -0.13761E-04   -0.13761E-04  8904   0.522E-02
DAV:   5    -0.580686967607E+04   -0.50249E-06   -0.50237E-06  8864   0.104E-02
DAV:   6    -0.580686967609E+04   -0.21847E-07   -0.21964E-07  6992   0.216E-03
DAV:   7    -0.580686967610E+04   -0.11687E-08   -0.10049E-08  4544   0.555E-04
       N       E                     dE             d eps       ncg     rms
RMM:   1    -0.575362807975E+03   -0.57536E+03   -0.13700E+03  6432   0.321E+02
RMM:   2    -0.668648959105E+03   -0.93286E+02   -0.30431E+02 10339   0.425E+01
RMM:   3    -0.676024098240E+03   -0.73751E+01   -0.29684E+01 10890   0.108E+01
RMM:   4    -0.677005336136E+03   -0.98124E+00   -0.31282E+00 11121   0.324E+00
RMM:   5    -0.677114110909E+03   -0.10877E+00   -0.27511E-01 11517   0.100E+00
RMM:   6    -0.677125560913E+03   -0.11450E-01   -0.40429E-02 11261   0.307E-01
RMM:   7    -0.677127124615E+03   -0.15637E-02   -0.53055E-03 11513   0.106E-01
RMM:   8    -0.677127342781E+03   -0.21817E-03   -0.88836E-04 11407   0.358E-02
RMM:   9    -0.677127378492E+03   -0.35711E-04   -0.13278E-04 10921   0.129E-02
RMM:  10    -0.677127384254E+03   -0.57613E-05   -0.26019E-05  9424   0.488E-03
RMM:  11    -0.677127385303E+03   -0.10498E-05   -0.41989E-06  7610   0.196E-03
RMM:  12    -0.677127385494E+03   -0.19092E-06   -0.89461E-07  6255   0.858E-04
RMM:  13    -0.677127385530E+03   -0.35413E-07   -0.14558E-07  5014   0.431E-04
RMM:  14    -0.677127385536E+03   -0.64631E-08   -0.29454E-08  3723   0.277E-04
DAV:   1    -0.580679249244E+04   -0.58068E+04   -0.16882E+00  5680   0.554E+00
DAV:   2    -0.580680849925E+04   -0.16007E-01   -0.16007E-01  8064   0.179E+00
DAV:   3    -0.580680887528E+04   -0.37602E-03   -0.37602E-03  8960   0.296E-01
DAV:   4    -0.580680888579E+04   -0.10511E-04   -0.10511E-04  8936   0.468E-02
DAV:   5    -0.580680888618E+04   -0.39450E-06   -0.39436E-06  8920   0.903E-03
DAV:   6    -0.580680888620E+04   -0.17617E-07   -0.17778E-07  6760   0.182E-03
DAV:   7    -0.580680888620E+04   -0.86766E-09   -0.91412E-09  4520   0.500E-04
       N       E                     dE             d eps       ncg     rms
RMM:   1    -0.579330211904E+03   -0.57933E+03   -0.13251E+03  6543   0.314E+02
RMM:   2    -0.669499419303E+03   -0.90169E+02   -0.28406E+02 10375   0.414E+01
RMM:   3    -0.676503894300E+03   -0.70045E+01   -0.26531E+01 10916   0.106E+01
RMM:   4    -0.677290468234E+03   -0.78657E+00   -0.23792E+00 11254   0.306E+00
RMM:   5    -0.677369552462E+03   -0.79084E-01   -0.21536E-01 11484   0.951E-01
RMM:   6    -0.677378377556E+03   -0.88251E-02   -0.30619E-02 11298   0.289E-01
RMM:   7    -0.677379545265E+03   -0.11677E-02   -0.39266E-03 11507   0.993E-02
RMM:   8    -0.677379716121E+03   -0.17086E-03   -0.68769E-04 11320   0.327E-02
RMM:   9    -0.677379743235E+03   -0.27114E-04   -0.95687E-05 10977   0.118E-02
RMM:  10    -0.677379747467E+03   -0.42315E-05   -0.17948E-05  9267   0.428E-03
RMM:  11    -0.677379748267E+03   -0.80021E-06   -0.31497E-06  7544   0.171E-03
RMM:  12    -0.677379748404E+03   -0.13707E-06   -0.56773E-07  6101   0.740E-04
RMM:  13    -0.677379748431E+03   -0.27510E-07   -0.11285E-07  4787   0.386E-04
RMM:  14    -0.677379748436E+03   -0.44511E-08   -0.17239E-08  3488   0.259E-04
DAV:   1    -0.580688067955E+04   -0.58069E+04   -0.29342E-09  3552   0.408E-04
DAV:   2    -0.580688067955E+04   -0.10095E-09   -0.10551E-09  3552   0.258E-04
       N       E                     dE             d eps       ncg     rms
RMM:   1    -0.579318145341E+03   -0.57932E+03   -0.13263E+03  6544   0.314E+02
RMM:   2    -0.669485237034E+03   -0.90167E+02   -0.28373E+02 10375   0.413E+01
RMM:   3    -0.676465131546E+03   -0.69799E+01   -0.26350E+01 10914   0.105E+01
RMM:   4    -0.677240911657E+03   -0.77578E+00   -0.23439E+00 11255   0.305E+00
RMM:   5    -0.677318667997E+03   -0.77756E-01   -0.21118E-01 11479   0.948E-01
RMM:   6    -0.677327235702E+03   -0.85677E-02   -0.29368E-02 11299   0.287E-01
RMM:   7    -0.677328375497E+03   -0.11398E-02   -0.38674E-03 11497   0.990E-02
RMM:   8    -0.677328544401E+03   -0.16890E-03   -0.68525E-04 11357   0.326E-02
RMM:   9    -0.677328571604E+03   -0.27203E-04   -0.94894E-05 10982   0.118E-02
RMM:  10    -0.677328575853E+03   -0.42487E-05   -0.17965E-05  9176   0.430E-03
RMM:  11    -0.677328576667E+03   -0.81384E-06   -0.31986E-06  7573   0.173E-03
RMM:  12    -0.677328576805E+03   -0.13866E-06   -0.57744E-07  6120   0.744E-04
RMM:  13    -0.677328576833E+03   -0.28086E-07   -0.11486E-07  4808   0.389E-04
RMM:  14    -0.677328576838E+03   -0.45668E-08   -0.17821E-08  3496   0.260E-04
DAV:   1    -0.580693593156E+04   -0.58069E+04   -0.16878E+00  5680   0.554E+00
DAV:   2    -0.580695197726E+04   -0.16046E-01   -0.16046E-01  8080   0.179E+00
DAV:   3    -0.580695233580E+04   -0.35854E-03   -0.35854E-03  9040   0.293E-01
DAV:   4    -0.580695234538E+04   -0.95814E-05   -0.95814E-05  8912   0.456E-02
DAV:   5    -0.580695234575E+04   -0.37016E-06   -0.37020E-06  8928   0.886E-03
DAV:   6    -0.580695234577E+04   -0.16869E-07   -0.16758E-07  6760   0.180E-03
DAV:   7    -0.580695234577E+04   -0.66393E-09   -0.85901E-09  4448   0.504E-04
       N       E                     dE             d eps       ncg     rms
RMM:   1    -0.579135766473E+03   -0.57914E+03   -0.13263E+03  6540   0.314E+02
RMM:   2    -0.669396038233E+03   -0.90260E+02   -0.28409E+02 10373   0.414E+01
RMM:   3    -0.676396734069E+03   -0.70007E+01   -0.26482E+01 10914   0.106E+01
RMM:   4    -0.677171954026E+03   -0.77522E+00   -0.23183E+00 11238   0.305E+00
RMM:   5    -0.677249332823E+03   -0.77379E-01   -0.21178E-01 11482   0.950E-01
RMM:   6    -0.677257870361E+03   -0.85375E-02   -0.28853E-02 11284   0.286E-01
RMM:   7    -0.677258998703E+03   -0.11283E-02   -0.38556E-03 11499   0.991E-02
RMM:   8    -0.677259165505E+03   -0.16680E-03   -0.67566E-04 11342   0.326E-02
RMM:   9    -0.677259192495E+03   -0.26990E-04   -0.94709E-05 10962   0.117E-02
RMM:  10    -0.677259196692E+03   -0.41972E-05   -0.17802E-05  9242   0.429E-03
RMM:  11    -0.677259197499E+03   -0.80671E-06   -0.31743E-06  7544   0.170E-03
RMM:  12    -0.677259197632E+03   -0.13294E-06   -0.55412E-07  6116   0.733E-04
RMM:  13    -0.677259197659E+03   -0.27340E-07   -0.11249E-07  4793   0.383E-04
RMM:  14    -0.677259197664E+03   -0.42702E-08   -0.16715E-08  3474   0.258E-04
       N       E                     dE             d eps       ncg     rms
RLQ:   1    -0.130706947893E+02   -0.13071E+02   -0.15068E+03  5520   0.349E+02
RLQ:   2    -0.171650079802E+02   -0.40943E+01   -0.13489E+01 10832   0.577E+00
RLQ:   3    -0.174417434511E+02   -0.27674E+00   -0.69418E-01 10375   0.142E+00
RLQ:   4    -0.174675905865E+02   -0.25847E-01   -0.91392E-02 10838   0.449E-01
RLQ:   5    -0.174710577423E+02   -0.34672E-02   -0.95461E-03 10100   0.142E-01
RLQ:   6    -0.174714437413E+02   -0.38600E-03   -0.11441E-03 10349   0.469E-02
RLQ:   7    -0.174714892428E+02   -0.45502E-04   -0.15135E-04 10295   0.157E-02
RLQ:   8    -0.174714947391E+02   -0.54963E-05   -0.18507E-05 10069   0.536E-03
RLQ:   9    -0.174714954736E+02   -0.73448E-06   -0.29906E-06  9125   0.191E-03
RLQ:  10    -0.174714955667E+02   -0.93096E-07   -0.33113E-07  7061   0.682E-04
RLQ:  11    -0.174714955813E+02   -0.14646E-07   -0.68302E-08  4613   0.328E-04
RLQ:  12    -0.174714955832E+02   -0.18591E-08   -0.61763E-09  3205   0.230E-04
