 vasp.6.2.1 16May21 (build Jan  3 2022 11:18:50) complex                         
 executed on             LinuxGNU date 2023.01.27  17:10:05
 running    1 mpi-ranks, with    1 threads/rank
 distrk:  each k-point on    1 cores,    1 groups
 distr:  one band on NCORE=   1 cores,    1 groups


--------------------------------------------------------------------------------------------------------


 INCAR:
   ISTART = 0
   ISMEAR = 0
   SIGMA = 0.01
   ENCUT = 550
   PREC = N
   LREAL = A
   EDIFF = 1e-8
   LCHIMAG = .TRUE.	
   DQ = 0.003
   ICHIBARE = 1
   LEFG = .TRUE.
   QUAD_EFG = 104 -320 -25.58 -94.2

 POTCAR:    PAW_PBE Na_sv_GW 11May2015            
 POTCAR:    PAW_PBE Ta_sv_GW 23Mar2010            
 POTCAR:    PAW_PBE O_s_GW 10Jan2007              
 POTCAR:    PAW_PBE F_GW 21Dec2007                
 POTCAR:    PAW_PBE Na_sv_GW 11May2015            
   SHA256 =  7aca660ab3bfaee19d1ee7a682571aefe7e2df9c5a478cbc4ca048f133583603 Na_sv_GW/POTCAR       
   COPYR  = (c) Copyright 11May2015 Georg Kresse                                                    
   COPYR  = This file is part of the software VASP. Any use, copying, and all other rights are regul
   COPYR  = If you do not have a valid VASP license, you may not use, copy or distribute this file. 
   VRHFIN =Na: 2s2p3s                                                                               
   LEXCH  = PE                                                                                      
   EATOM  =  1305.7875 eV,   95.9727 Ry                                                             
                                                                                                    
   TITEL  = PAW_PBE Na_sv_GW 11May2015                                                              
   LULTRA =        F    use ultrasoft PP ?                                                          
   IUNSCR =        1    unscreen: 0-lin 1-nonlin 2-no                                               
   RPACOR =    1.800    partial core radius                                                         
   POMASS =   22.990; ZVAL   =    9.000    mass and valenz                                          
   RCORE  =    2.200    outmost cutoff radius                                                       
   RWIGS  =    2.200; RWIGS  =    1.164    wigner-seitz radius (au A)                               
   ENMAX  =  372.853; ENMIN  =  279.639 eV                                                          
   RCLOC  =    1.108    cutoff for local pot                                                        
   LCOR   =        T    correct aug charges                                                         
   LPAW   =        T    paw PP                                                                      
   EAUG   =  536.357                                                                                
   RMAX   =    2.245    core radius for proj-oper                                                   
   RAUG   =    1.300    factor for augmentation sphere                                              
   RDEP   =    2.259    radius for radial grids                                                     
   RDEPT  =    1.800    core radius for aug-charge                                                  
                                                                                                    
   Atomic configuration                                                                             
    6 entries                                                                                       
     n  l   j            E        occ.                                                              
     1  0  0.50     -1035.8704   2.0000                                                             
     2  0  0.50       -58.9175   2.0000                                                             
     2  1  1.50       -30.8193   6.0000                                                             
     3  1  1.50        -1.4789   1.0000                                                             
     3  2  1.50        -0.7184   0.0000                                                             
     4  3  2.50        -1.3606   0.0000                                                             
   Description                                                                                      
     l       E           TYP  RCUT    TYP  RCUT                                                     
     0    -58.9175350     23  1.400                                                                 
     0    108.8466080     23  1.400                                                                 
     1    -30.8192593     23  1.650                                                                 
     1     -1.4788505     23  2.200                                                                 
     1     81.6349560     23  2.200                                                                 
     2     20.4087390     23  2.200                                                                 
     2     54.4233040     23  2.200                                                                 
  local pseudopotential read in
  partial core-charges read in
  partial kinetic energy density read in
  kinetic energy density of atom read in
  atomic valenz-charges read in
  non local Contribution for L=           0  read in
    real space projection operators read in
  non local Contribution for L=           0  read in
    real space projection operators read in
  non local Contribution for L=           1  read in
    real space projection operators read in
  non local Contribution for L=           1  read in
    real space projection operators read in
  non local Contribution for L=           1  read in
    real space projection operators read in
  non local Contribution for L=           2  read in
    real space projection operators read in
  non local Contribution for L=           2  read in
    real space projection operators read in
    PAW grid and wavefunctions read in

   number of l-projection  operators is LMAX  =           7
   number of lm-projection operators is LMMAX =          21

 POTCAR:    PAW_PBE Ta_sv_GW 23Mar2010            
   SHA256 =  f9dffcd32a5321ea182ca3bf88f89b0d05d2b9340811fad1b6a642133ccdfc37 Ta_sv_GW/POTCAR       
   COPYR  = (c) Copyright 23Mar2010 Georg Kresse                                                    
   COPYR  = This file is part of the software VASP. Any use, copying, and all other rights are regul
   COPYR  = If you do not have a valid VASP license, you may not use, copy or distribute this file. 
   VRHFIN =Ta: 5p6s6d                                                                               
   LEXCH  = PE                                                                                      
   EATOM  =  1591.0418 eV,  116.9383 Ry                                                             
                                                                                                    
   TITEL  = PAW_PBE Ta_sv_GW 23Mar2010                                                              
   LULTRA =        F    use ultrasoft PP ?                                                          
   IUNSCR =        1    unscreen: 0-lin 1-nonlin 2-no                                               
   RPACOR =    1.500    partial core radius                                                         
   POMASS =  180.948; ZVAL   =   13.000    mass and valenz                                          
   RCORE  =    2.500    outmost cutoff radius                                                       
   RWIGS  =    2.600; RWIGS  =    1.376    wigner-seitz radius (au A)                               
   ENMAX  =  286.008; ENMIN  =  214.506 eV                                                          
   RCLOC  =    1.601    cutoff for local pot                                                        
   LCOR   =        T    correct aug charges                                                         
   LPAW   =        T    paw PP                                                                      
   EAUG   =  718.287                                                                                
   DEXC   =    0.000                                                                                
   RMAX   =    2.551    core radius for proj-oper                                                   
   RAUG   =    1.300    factor for augmentation sphere                                              
   RDEP   =    2.526    radius for radial grids                                                     
   RDEPT  =    1.943    core radius for aug-charge                                                  
                                                                                                    
   Atomic configuration                                                                             
   14 entries                                                                                       
     n  l   j            E        occ.                                                              
     1  0  0.50    -67340.1329   2.0000                                                             
     2  0  0.50    -11565.7071   2.0000                                                             
     2  1  1.50    -10132.8906   6.0000                                                             
     3  0  0.50     -2647.3399   2.0000                                                             
     3  1  1.50     -2221.3791   6.0000                                                             
     3  2  2.50     -1725.0844  10.0000                                                             
     4  0  0.50      -537.4682   2.0000                                                             
     4  1  1.50      -397.7815   6.0000                                                             
     4  2  2.50      -219.1567  10.0000                                                             
     4  3  3.50       -21.7939  14.0000                                                             
     5  0  0.50       -70.0410   2.0000                                                             
     5  1  1.50       -36.6715   6.0000                                                             
     5  2  2.50        -2.0002   5.0000                                                             
     5  3  2.50        -1.3606   0.0000                                                             
   Description                                                                                      
     l       E           TYP  RCUT    TYP  RCUT                                                     
     0    -70.0409813     23  1.500                                                                 
     0    -71.4015639     23  1.500                                                                 
     0    108.8466080     23  1.500                                                                 
     1    -36.6714834     23  1.900                                                                 
     1     68.0291300     23  1.900                                                                 
     2     -2.0001941     23  2.200                                                                 
     2      1.0823759     23  2.200                                                                 
     3      6.8029130     23  2.500                                                                 
  local pseudopotential read in
  partial core-charges read in
  partial kinetic energy density read in
  kinetic energy density of atom read in
  atomic valenz-charges read in
  non local Contribution for L=           0  read in
    real space projection operators read in
  non local Contribution for L=           0  read in
    real space projection operators read in
  non local Contribution for L=           0  read in
    real space projection operators read in
  non local Contribution for L=           1  read in
    real space projection operators read in
  non local Contribution for L=           1  read in
    real space projection operators read in
  non local Contribution for L=           2  read in
    real space projection operators read in
  non local Contribution for L=           2  read in
    real space projection operators read in
  non local Contribution for L=           3  read in
    real space projection operators read in
    PAW grid and wavefunctions read in

   number of l-projection  operators is LMAX  =           8
   number of lm-projection operators is LMMAX =          26

 POTCAR:    PAW_PBE O_s_GW 10Jan2007              
   SHA256 =  8479399bb3502b2838d2b23234b8597ed1f898a5a7f592e6c46d7b1ca5096bfd O_s_GW/POTCAR         
   COPYR  = (c) Copyright 10Jan2007 Georg Kresse                                                    
   COPYR  = This file is part of the software VASP. Any use, copying, and all other rights are regul
   COPYR  = If you do not have a valid VASP license, you may not use, copy or distribute this file. 
   VRHFIN =O: s2p4                                                                                  
   LEXCH  = PE                                                                                      
   EATOM  =   432.3788 eV,   31.7789 Ry                                                             
                                                                                                    
   TITEL  = PAW_PBE O_s_GW 10Jan2007                                                                
   LULTRA =        F    use ultrasoft PP ?                                                          
   IUNSCR =        0    unscreen: 0-lin 1-nonlin 2-no                                               
   RPACOR =    0.000    partial core radius                                                         
   POMASS =   16.000; ZVAL   =    6.000    mass and valenz                                          
   RCORE  =    1.700    outmost cutoff radius                                                       
   RWIGS  =    1.800; RWIGS  =    0.953    wigner-seitz radius (au A)                               
   ENMAX  =  334.664; ENMIN  =  250.998 eV                                                          
   ICORE  =        2    local potential                                                             
   LCOR   =        T    correct aug charges                                                         
   LPAW   =        T    paw PP                                                                      
   EAUG   =  468.659                                                                                
   DEXC   =    0.000                                                                                
   RMAX   =    1.737    core radius for proj-oper                                                   
   RAUG   =    1.300    factor for augmentation sphere                                              
   RDEP   =    1.761    radius for radial grids                                                     
   RDEPT  =    1.463    core radius for aug-charge                                                  
                                                                                                    
   Atomic configuration                                                                             
    4 entries                                                                                       
     n  l   j            E        occ.                                                              
     1  0  0.50      -514.6923   2.0000                                                             
     2  0  0.50       -23.9615   2.0000                                                             
     2  1  0.50        -9.0305   4.0000                                                             
     3  2  1.50        -9.5241   0.0000                                                             
   Description                                                                                      
     l       E           TYP  RCUT    TYP  RCUT                                                     
     0    -23.9615316     23  1.400                                                                 
     0     95.2407820     23  1.400                                                                 
     1     -9.0304908     23  1.700                                                                 
     1    -20.4087390     23  1.700                                                                 
     1    108.8466080     23  1.700                                                                 
     2      6.8029130      7  1.500                                                                 
  local pseudopotential read in
  kinetic energy density of atom read in
  atomic valenz-charges read in
  non local Contribution for L=           0  read in
    real space projection operators read in
  non local Contribution for L=           0  read in
    real space projection operators read in
  non local Contribution for L=           1  read in
    real space projection operators read in
  non local Contribution for L=           1  read in
    real space projection operators read in
  non local Contribution for L=           1  read in
    real space projection operators read in
    PAW grid and wavefunctions read in

   number of l-projection  operators is LMAX  =           5
   number of lm-projection operators is LMMAX =          11

 POTCAR:    PAW_PBE F_GW 21Dec2007                
   SHA256 =  a4be5be7c2e94ecbdd74e103f102d884b83cc3f3bf5f2c60c72fa35846851376 F_GW/POTCAR           
   COPYR  = (c) Copyright 21Dec2007 Georg Kresse                                                    
   COPYR  = This file is part of the software VASP. Any use, copying, and all other rights are regul
   COPYR  = If you do not have a valid VASP license, you may not use, copy or distribute this file. 
   VRHFIN =F: s2p5                                                                                  
   LEXCH  = PE                                                                                      
   EATOM  =   659.6475 eV,   48.4827 Ry                                                             
                                                                                                    
   TITEL  = PAW_PBE F_GW 21Dec2007                                                                  
   LULTRA =        F    use ultrasoft PP ?                                                          
   IUNSCR =        0    unscreen: 0-lin 1-nonlin 2-no                                               
   RPACOR =    0.000    partial core radius                                                         
   POMASS =   18.998; ZVAL   =    7.000    mass and valenz                                          
   RCORE  =    1.400    outmost cutoff radius                                                       
   RWIGS  =    1.500; RWIGS  =    0.794    wigner-seitz radius (au A)                               
   ENMAX  =  487.698; ENMIN  =  365.773 eV                                                          
   ICORE  =        2    local potential                                                             
   LCOR   =        T    correct aug charges                                                         
   LPAW   =        T    paw PP                                                                      
   EAUG   =  697.405                                                                                
   DEXC   =    0.000                                                                                
   RMAX   =    1.435    core radius for proj-oper                                                   
   RAUG   =    1.300    factor for augmentation sphere                                              
   RDEP   =    1.444    radius for radial grids                                                     
   RDEPT  =    1.218    core radius for aug-charge                                                  
                                                                                                    
   Atomic configuration                                                                             
    4 entries                                                                                       
     n  l   j            E        occ.                                                              
     1  0  0.50      -663.3661   2.0000                                                             
     2  0  0.50       -29.8995   2.0000                                                             
     2  1  0.50       -11.1114   5.0000                                                             
     3  2  1.50       -12.2452   0.0000                                                             
   Description                                                                                      
     l       E           TYP  RCUT    TYP  RCUT                                                     
     0    -29.8995019     23  1.100                                                                 
     0     -9.5240782     23  1.100                                                                 
     1    -11.1113914     23  1.400                                                                 
     1      1.3605826     23  1.400                                                                 
     2    -12.2452434     23  1.400                                                                 
  local pseudopotential read in
  kinetic energy density of atom read in
  atomic valenz-charges read in
  non local Contribution for L=           0  read in
    real space projection operators read in
  non local Contribution for L=           0  read in
    real space projection operators read in
  non local Contribution for L=           1  read in
    real space projection operators read in
  non local Contribution for L=           1  read in
    real space projection operators read in
    PAW grid and wavefunctions read in

   number of l-projection  operators is LMAX  =           4
   number of lm-projection operators is LMMAX =           8

 Optimization of the real space projectors (new method)

 maximal supplied QI-value         = 17.01
 optimisation between [QCUT,QGAM] = [ 11.91, 23.98] = [ 39.69,161.04] Ry 
 Optimized for a Real-space Cutoff    1.41 Angstroem

   l    n(q)    QCUT    max X(q) W(low)/X(q) W(high)/X(q)  e(spline) 
   0     10    11.905     3.417    0.52E-05    0.14E-05    0.21E-07
   0     10    11.905     3.114    0.22E-04    0.17E-05    0.22E-06
   1     10    11.905     5.429    0.19E-03    0.12E-03    0.89E-06
   1     10    11.905    22.312    0.14E-03    0.89E-04    0.45E-06
   1     10    11.905     3.323    0.31E-03    0.19E-03    0.13E-05
   2      9    11.905    12.030    0.19E-03    0.32E-04    0.24E-06
   2      9    11.905     8.156    0.21E-03    0.33E-04    0.24E-06
 Optimization of the real space projectors (new method)

 maximal supplied QI-value         = 15.12
 optimisation between [QCUT,QGAM] = [ 11.94, 23.89] = [ 39.94,159.77] Ry 
 Optimized for a Real-space Cutoff    1.45 Angstroem

   l    n(q)    QCUT    max X(q) W(low)/X(q) W(high)/X(q)  e(spline) 
   0     10    11.943   378.168    0.29E-04    0.59E-04    0.12E-05
   0     10    11.943   400.714    0.29E-04    0.59E-04    0.12E-05
   0     10    11.943     5.006    0.16E-04    0.41E-04    0.10E-05
   1     10    11.943     2.647    0.35E-05    0.45E-05    0.43E-07
   1     10    11.943     2.272    0.31E-04    0.27E-04    0.15E-06
   2      9    11.943    42.263    0.32E-03    0.47E-04    0.58E-06
   2      9    11.943    33.287    0.32E-03    0.44E-04    0.57E-06
   3      9    11.943     3.457    0.49E-03    0.55E-03    0.27E-06
 Optimization of the real space projectors (new method)

 maximal supplied QI-value         = 22.11
 optimisation between [QCUT,QGAM] = [ 11.94, 23.88] = [ 39.92,159.67] Ry 
 Optimized for a Real-space Cutoff    1.45 Angstroem

   l    n(q)    QCUT    max X(q) W(low)/X(q) W(high)/X(q)  e(spline) 
   0     10    11.939     5.088    0.25E-04    0.28E-06    0.17E-06
   0     10    11.939     1.664    0.52E-04    0.46E-05    0.54E-06
   1     10    11.939     8.077    0.27E-03    0.19E-03    0.13E-05
   1     10    11.939     5.951    0.49E-03    0.34E-03    0.25E-05
   1     10    11.939     3.597    0.20E-03    0.15E-03    0.13E-05
 Optimization of the real space projectors (new method)

 maximal supplied QI-value         = 26.83
 optimisation between [QCUT,QGAM] = [ 11.81, 23.88] = [ 39.04,159.72] Ry 
 Optimized for a Real-space Cutoff    1.11 Angstroem

   l    n(q)    QCUT    max X(q) W(low)/X(q) W(high)/X(q)  e(spline) 
   0      8    11.807    15.805    0.41E-03    0.77E-03    0.26E-06
   0      8    11.807    12.410    0.41E-03    0.76E-03    0.26E-06
   1      7    11.807     9.077    0.16E-03    0.46E-03    0.19E-06
   1      7    11.807     8.229    0.14E-03    0.43E-03    0.19E-06
  PAW_PBE Na_sv_GW 11May2015            :
 energy of atom  1       EATOM=-1305.7875
 kinetic energy error for atom=    0.0318 (will be added to EATOM!!)
  PAW_PBE Ta_sv_GW 23Mar2010            :
 energy of atom  2       EATOM=-1591.0418
 kinetic energy error for atom=    0.0133 (will be added to EATOM!!)
  PAW_PBE O_s_GW 10Jan2007              :
 energy of atom  3       EATOM= -432.3788
 kinetic energy error for atom=    0.0100 (will be added to EATOM!!)
  PAW_PBE F_GW 21Dec2007                :
 energy of atom  4       EATOM= -659.6475
 kinetic energy error for atom=    0.0458 (will be added to EATOM!!)


 POSCAR: Sodium difluorodioxoniobate
  positions in direct lattice
  No initial velocities read in
 exchange correlation table for  LEXCH =        8
   RHO(1)=    0.500       N(1)  =     2000
   RHO(2)=  100.500       N(2)  =     4000



--------------------------------------------------------------------------------------------------------


 ion  position               nearest neighbor table
   1  0.371  0.790  0.108-  24 2.28  19 2.29  17 2.35   9 2.54
   2  0.629  0.210  0.892-  23 2.28  20 2.29  18 2.35  10 2.54
   3  0.629  0.290  0.392-  22 2.28  17 2.29  19 2.35  11 2.54
   4  0.371  0.710  0.608-  21 2.28  18 2.29  20 2.35  12 2.54
   5  0.159  0.260  0.297-  15 1.92  13 1.93  12 1.94   9 1.97  21 2.03  17 2.06
   6  0.841  0.740  0.703-  16 1.92  14 1.93  11 1.94  10 1.97  22 2.03  18 2.06
   7  0.841  0.760  0.203-  13 1.92  15 1.93  10 1.94  11 1.97  23 2.03  19 2.06
   8  0.159  0.240  0.797-  14 1.92  16 1.93   9 1.94  12 1.97  24 2.03  20 2.06
   9  0.187  0.167  0.053-   8 1.94   5 1.97   1 2.54
  10  0.813  0.833  0.947-   7 1.94   6 1.97   2 2.54
  11  0.813  0.667  0.447-   6 1.94   7 1.97   3 2.54
  12  0.187  0.333  0.553-   5 1.94   8 1.97   4 2.54
  13  0.029  0.547  0.214-   7 1.92   5 1.93
  14  0.971  0.453  0.786-   8 1.92   6 1.93
  15  0.971  0.047  0.286-   5 1.92   7 1.93
  16  0.029  0.953  0.714-   6 1.92   8 1.93
  17  0.370  0.469  0.313-   5 2.06   3 2.29   1 2.35
  18  0.630  0.531  0.687-   6 2.06   4 2.29   2 2.35
  19  0.630  0.969  0.187-   7 2.06   1 2.29   3 2.35
  20  0.370  0.031  0.813-   8 2.06   2 2.29   4 2.35
  21  0.324  0.984  0.375-   5 2.03   4 2.28
  22  0.676  0.016  0.625-   6 2.03   3 2.28
  23  0.676  0.484  0.125-   7 2.03   2 2.28
  24  0.324  0.516  0.875-   8 2.03   1 2.28

  LATTYP: Found a simple monoclinic cell.
 ALAT       =     7.5508279229
 B/A-ratio  =     0.7258904253
 C/A-ratio  =     1.0843793334
 COS(beta)  =    -0.2147157932
  
  Lattice vectors:
  
 A1 = (  -1.6066295454,   0.0000000000,   7.3779227310)
 A2 = (   0.0000000000,  -5.4810736926,   0.0000000000)
 A3 = (   8.1879455956,   0.0000000000,  -0.0162647065)


Analysis of symmetry for initial positions (statically):
=====================================================================
 Subroutine PRICEL returns:
 Original cell was already a primitive cell.
 

 Routine SETGRP: Setting up the symmetry group for a 
 simple monoclinic supercell.


 Subroutine GETGRP returns: Found  4 space group operations
 (whereof  2 operations were pure point group operations)
 out of a pool of  4 trial point group operations.


The static configuration has the point symmetry S_2 .
 The point group associated with its full space group is C_2h.


Analysis of symmetry for dynamics (positions and initial velocities):
=====================================================================
 Subroutine PRICEL returns:
 Original cell was already a primitive cell.
 

 Routine SETGRP: Setting up the symmetry group for a 
 simple monoclinic supercell.


 Subroutine GETGRP returns: Found  4 space group operations
 (whereof  2 operations were pure point group operations)
 out of a pool of  4 trial point group operations.


The dynamic configuration has the point symmetry S_2 .
 The point group associated with its full space group is C_2h.


 Subroutine INISYM returns: Found  4 space group operations
 (whereof  2 operations are pure point group operations),
 and found     1 'primitive' translations


----------------------------------------------------------------------------------------

                                     Primitive cell                                     

  volume of cell :     330.9686

  direct lattice vectors                    reciprocal lattice vectors
     8.187945596  0.000000000 -0.016264706     0.122183610 -0.000000000  0.026606920
     0.000000000  5.481073693  0.000000000    -0.000000000  0.182446005 -0.000000000
    -1.606629545  0.000000000  7.377922731     0.000269355 -0.000000000  0.135598161

  length of vectors
     8.187961750  5.481073693  7.550827923     0.125047042  0.182446005  0.135598428

  position of ions in fractional coordinates (direct lattice)
     0.370773410  0.789818541  0.107654593
     0.629226560  0.210181459  0.892345407
     0.629226560  0.289818541  0.392345407
     0.370773410  0.710181459  0.607654593
     0.158851679  0.259926249  0.296811162
     0.841148351  0.740073781  0.703188868
     0.841148351  0.759926219  0.203188838
     0.158851679  0.240073751  0.796811132
     0.187276807  0.167058116  0.053053987
     0.812723163  0.832941914  0.946945991
     0.812723163  0.667058086  0.446946021
     0.187276807  0.332941884  0.553054009
     0.028567453  0.546781256  0.214005651
     0.971432536  0.453218744  0.785994334
     0.971432536  0.046781256  0.285994334
     0.028567453  0.953218744  0.714005666
     0.370447042  0.468749810  0.313422057
     0.629552958  0.531250190  0.686577973
     0.629552958  0.968749810  0.186577943
     0.370447042  0.031250190  0.813422027
     0.324025325  0.984338850  0.374876563
     0.675974675  0.015661150  0.625123407
     0.675974675  0.484338850  0.125123437
     0.324025325  0.515661150  0.874876593

  ion indices of the primitive-cell ions
   primitive index   ion index
                 1           1
                 2           2
                 3           3
                 4           4
                 5           5
                 6           6
                 7           7
                 8           8
                 9           9
                10          10
                11          11
                12          12
                13          13
                14          14
                15          15
                16          16
                17          17
                18          18
                19          19
                20          20
                21          21
                22          22
                23          23
                24          24

----------------------------------------------------------------------------------------



 KPOINTS: NbOF3_W11-333-vasp_21-relcw             

Automatic generation of k-mesh.
 Grid dimensions read from file:
 generate k-points for:    4    6    4

 Generating k-lattice:

  Cartesian coordinates                     Fractional coordinates (reciprocal lattice)
     0.030545903 -0.000000000  0.006651730     0.250000000  0.000000000  0.000000000
    -0.000000000  0.030407668 -0.000000000     0.000000000  0.166666667  0.000000000
     0.000067339 -0.000000000  0.033899540    -0.000000000  0.000000000  0.250000000

  Length of vectors
     0.031261761  0.030407668  0.033899607

  Shift w.r.t. Gamma in fractional coordinates (k-lattice)
     0.500000000  0.500000000  0.500000000

 
 Subroutine IBZKPT returns following result:
 ===========================================
 
 Found     24 irreducible k-points:
 
 Following reciprocal coordinates:
            Coordinates               Weight
  0.125000  0.083333  0.125000      4.000000
  0.375000  0.083333  0.125000      4.000000
 -0.375000  0.083333  0.125000      4.000000
 -0.125000  0.083333  0.125000      4.000000
  0.125000  0.250000  0.125000      4.000000
  0.375000  0.250000  0.125000      4.000000
 -0.375000  0.250000  0.125000      4.000000
 -0.125000  0.250000  0.125000      4.000000
  0.125000  0.416667  0.125000      4.000000
  0.375000  0.416667  0.125000      4.000000
 -0.375000  0.416667  0.125000      4.000000
 -0.125000  0.416667  0.125000      4.000000
  0.125000  0.083333  0.375000      4.000000
  0.375000  0.083333  0.375000      4.000000
 -0.375000  0.083333  0.375000      4.000000
 -0.125000  0.083333  0.375000      4.000000
  0.125000  0.250000  0.375000      4.000000
  0.375000  0.250000  0.375000      4.000000
 -0.375000  0.250000  0.375000      4.000000
 -0.125000  0.250000  0.375000      4.000000
  0.125000  0.416667  0.375000      4.000000
  0.375000  0.416667  0.375000      4.000000
 -0.375000  0.416667  0.375000      4.000000
 -0.125000  0.416667  0.375000      4.000000
 
 Following cartesian coordinates:
            Coordinates               Weight
  0.015307  0.015204  0.020276      4.000000
  0.045853  0.015204  0.026927      4.000000
 -0.045785  0.015204  0.006972      4.000000
 -0.015239  0.015204  0.013624      4.000000
  0.015307  0.045612  0.020276      4.000000
  0.045853  0.045612  0.026927      4.000000
 -0.045785  0.045612  0.006972      4.000000
 -0.015239  0.045612  0.013624      4.000000
  0.015307  0.076019  0.020276      4.000000
  0.045853  0.076019  0.026927      4.000000
 -0.045785  0.076019  0.006972      4.000000
 -0.015239  0.076019  0.013624      4.000000
  0.015374  0.015204  0.054175      4.000000
  0.045920  0.015204  0.060827      4.000000
 -0.045718  0.015204  0.040872      4.000000
 -0.015172  0.015204  0.047523      4.000000
  0.015374  0.045612  0.054175      4.000000
  0.045920  0.045612  0.060827      4.000000
 -0.045718  0.045612  0.040872      4.000000
 -0.015172  0.045612  0.047523      4.000000
  0.015374  0.076019  0.054175      4.000000
  0.045920  0.076019  0.060827      4.000000
 -0.045718  0.076019  0.040872      4.000000
 -0.015172  0.076019  0.047523      4.000000
 
 
 Subroutine IBZKPT_HF returns following result:
 ==============================================
 
 Found     96 k-points in 1st BZ
 the following     96 k-points will be used (e.g. in the exchange kernel)
 Following reciprocal coordinates:   # in IRBZ
  0.125000  0.083333  0.125000    0.01041667   1 t-inv F
  0.375000  0.083333  0.125000    0.01041667   2 t-inv F
 -0.375000  0.083333  0.125000    0.01041667   3 t-inv F
 -0.125000  0.083333  0.125000    0.01041667   4 t-inv F
  0.125000  0.250000  0.125000    0.01041667   5 t-inv F
  0.375000  0.250000  0.125000    0.01041667   6 t-inv F
 -0.375000  0.250000  0.125000    0.01041667   7 t-inv F
 -0.125000  0.250000  0.125000    0.01041667   8 t-inv F
  0.125000  0.416667  0.125000    0.01041667   9 t-inv F
  0.375000  0.416667  0.125000    0.01041667  10 t-inv F
 -0.375000  0.416667  0.125000    0.01041667  11 t-inv F
 -0.125000  0.416667  0.125000    0.01041667  12 t-inv F
  0.125000  0.083333  0.375000    0.01041667  13 t-inv F
  0.375000  0.083333  0.375000    0.01041667  14 t-inv F
 -0.375000  0.083333  0.375000    0.01041667  15 t-inv F
 -0.125000  0.083333  0.375000    0.01041667  16 t-inv F
  0.125000  0.250000  0.375000    0.01041667  17 t-inv F
  0.375000  0.250000  0.375000    0.01041667  18 t-inv F
 -0.375000  0.250000  0.375000    0.01041667  19 t-inv F
 -0.125000  0.250000  0.375000    0.01041667  20 t-inv F
  0.125000  0.416667  0.375000    0.01041667  21 t-inv F
  0.375000  0.416667  0.375000    0.01041667  22 t-inv F
 -0.375000  0.416667  0.375000    0.01041667  23 t-inv F
 -0.125000  0.416667  0.375000    0.01041667  24 t-inv F
 -0.125000 -0.083333 -0.125000    0.01041667   1 t-inv F
 -0.125000  0.083333 -0.125000    0.01041667   1 t-inv F
  0.125000 -0.083333  0.125000    0.01041667   1 t-inv F
 -0.375000 -0.083333 -0.125000    0.01041667   2 t-inv F
 -0.375000  0.083333 -0.125000    0.01041667   2 t-inv F
  0.375000 -0.083333  0.125000    0.01041667   2 t-inv F
  0.375000 -0.083333 -0.125000    0.01041667   3 t-inv F
  0.375000  0.083333 -0.125000    0.01041667   3 t-inv F
 -0.375000 -0.083333  0.125000    0.01041667   3 t-inv F
  0.125000 -0.083333 -0.125000    0.01041667   4 t-inv F
  0.125000  0.083333 -0.125000    0.01041667   4 t-inv F
 -0.125000 -0.083333  0.125000    0.01041667   4 t-inv F
 -0.125000 -0.250000 -0.125000    0.01041667   5 t-inv F
 -0.125000  0.250000 -0.125000    0.01041667   5 t-inv F
  0.125000 -0.250000  0.125000    0.01041667   5 t-inv F
 -0.375000 -0.250000 -0.125000    0.01041667   6 t-inv F
 -0.375000  0.250000 -0.125000    0.01041667   6 t-inv F
  0.375000 -0.250000  0.125000    0.01041667   6 t-inv F
  0.375000 -0.250000 -0.125000    0.01041667   7 t-inv F
  0.375000  0.250000 -0.125000    0.01041667   7 t-inv F
 -0.375000 -0.250000  0.125000    0.01041667   7 t-inv F
  0.125000 -0.250000 -0.125000    0.01041667   8 t-inv F
  0.125000  0.250000 -0.125000    0.01041667   8 t-inv F
 -0.125000 -0.250000  0.125000    0.01041667   8 t-inv F
 -0.125000 -0.416667 -0.125000    0.01041667   9 t-inv F
 -0.125000  0.416667 -0.125000    0.01041667   9 t-inv F
  0.125000 -0.416667  0.125000    0.01041667   9 t-inv F
 -0.375000 -0.416667 -0.125000    0.01041667  10 t-inv F
 -0.375000  0.416667 -0.125000    0.01041667  10 t-inv F
  0.375000 -0.416667  0.125000    0.01041667  10 t-inv F
  0.375000 -0.416667 -0.125000    0.01041667  11 t-inv F
  0.375000  0.416667 -0.125000    0.01041667  11 t-inv F
 -0.375000 -0.416667  0.125000    0.01041667  11 t-inv F
  0.125000 -0.416667 -0.125000    0.01041667  12 t-inv F
  0.125000  0.416667 -0.125000    0.01041667  12 t-inv F
 -0.125000 -0.416667  0.125000    0.01041667  12 t-inv F
 -0.125000 -0.083333 -0.375000    0.01041667  13 t-inv F
 -0.125000  0.083333 -0.375000    0.01041667  13 t-inv F
  0.125000 -0.083333  0.375000    0.01041667  13 t-inv F
 -0.375000 -0.083333 -0.375000    0.01041667  14 t-inv F
 -0.375000  0.083333 -0.375000    0.01041667  14 t-inv F
  0.375000 -0.083333  0.375000    0.01041667  14 t-inv F
  0.375000 -0.083333 -0.375000    0.01041667  15 t-inv F
  0.375000  0.083333 -0.375000    0.01041667  15 t-inv F
 -0.375000 -0.083333  0.375000    0.01041667  15 t-inv F
  0.125000 -0.083333 -0.375000    0.01041667  16 t-inv F
  0.125000  0.083333 -0.375000    0.01041667  16 t-inv F
 -0.125000 -0.083333  0.375000    0.01041667  16 t-inv F
 -0.125000 -0.250000 -0.375000    0.01041667  17 t-inv F
 -0.125000  0.250000 -0.375000    0.01041667  17 t-inv F
  0.125000 -0.250000  0.375000    0.01041667  17 t-inv F
 -0.375000 -0.250000 -0.375000    0.01041667  18 t-inv F
 -0.375000  0.250000 -0.375000    0.01041667  18 t-inv F
  0.375000 -0.250000  0.375000    0.01041667  18 t-inv F
  0.375000 -0.250000 -0.375000    0.01041667  19 t-inv F
  0.375000  0.250000 -0.375000    0.01041667  19 t-inv F
 -0.375000 -0.250000  0.375000    0.01041667  19 t-inv F
  0.125000 -0.250000 -0.375000    0.01041667  20 t-inv F
  0.125000  0.250000 -0.375000    0.01041667  20 t-inv F
 -0.125000 -0.250000  0.375000    0.01041667  20 t-inv F
 -0.125000 -0.416667 -0.375000    0.01041667  21 t-inv F
 -0.125000  0.416667 -0.375000    0.01041667  21 t-inv F
  0.125000 -0.416667  0.375000    0.01041667  21 t-inv F
 -0.375000 -0.416667 -0.375000    0.01041667  22 t-inv F
 -0.375000  0.416667 -0.375000    0.01041667  22 t-inv F
  0.375000 -0.416667  0.375000    0.01041667  22 t-inv F
  0.375000 -0.416667 -0.375000    0.01041667  23 t-inv F
  0.375000  0.416667 -0.375000    0.01041667  23 t-inv F
 -0.375000 -0.416667  0.375000    0.01041667  23 t-inv F
  0.125000 -0.416667 -0.375000    0.01041667  24 t-inv F
  0.125000  0.416667 -0.375000    0.01041667  24 t-inv F
 -0.125000 -0.416667  0.375000    0.01041667  24 t-inv F


--------------------------------------------------------------------------------------------------------




 Dimension of arrays:
   k-points           NKPTS =     24   k-points in BZ     NKDIM =     24   number of bands    NBANDS=    115
   number of dos      NEDOS =    301   number of ions     NIONS =     24
   non local maximal  LDIM  =      8   non local SUM 2l+1 LMDIM =     26
   total plane-waves  NPLWV =  73728
   max r-space proj   IRMAX =   2882   max aug-charges    IRDMAX=   8723
   dimension x,y,z NGX =    48 NGY =   32 NGZ =   48
   dimension x,y,z NGXF=    96 NGYF=   64 NGZF=   96
   support grid    NGXF=    96 NGYF=   64 NGZF=   96
   ions per type =               4   4   8   8
   NGX,Y,Z   is equivalent  to a cutoff of   9.75,  9.71, 10.57 a.u.
   NGXF,Y,Z  is equivalent  to a cutoff of  19.49, 19.41, 21.14 a.u.

 SYSTEM =  unknown system                          
 POSCAR =  Sodium difluorodioxoniobate             

 Startparameter for this run:
   NWRITE =      2    write-flag & timer
   PREC   = n         normal or accurate (medium, high low for compatibility)
   ISTART =      0    job   : 0-new  1-cont  2-samecut
   ICHARG =      2    charge: 1-file 2-atom 10-const
   ISPIN  =      1    spin polarized calculation?
   LNONCOLLINEAR =      F non collinear calculations
   LSORBIT =      F    spin-orbit coupling
   INIWAV =      1    electr: 0-lowe 1-rand  2-diag
   LASPH  =      F    aspherical Exc in radial PAW
 Electronic Relaxation 1
   ENCUT  =  550.0 eV  40.42 Ry    6.36 a.u.  15.66 10.48 14.44*2*pi/ulx,y,z
   ENINI  =  550.0     initial cutoff
   ENAUG  =  718.3 eV  augmentation charge cutoff
   NELM   =     60;   NELMIN=  2; NELMDL= -5     # of ELM steps 
   EDIFF  = 0.1E-07   stopping-criterion for ELM
   LREAL  =      T    real-space projection
   NLSPLINE    = F    spline interpolate recip. space projectors
   LCOMPAT=      F    compatible to vasp.4.4
   GGA_COMPAT  = T    GGA compatible to vasp.4.4-vasp.4.6
   LMAXPAW     = -100 max onsite density
   LMAXMIX     =    2 max onsite mixed and CHGCAR
   VOSKOWN=      0    Vosko Wilk Nusair interpolation
   ROPT   =   -0.00050  -0.00050  -0.00050  -0.00050
 Ionic relaxation
   EDIFFG = 0.1E-06   stopping-criterion for IOM
   NSW    =      0    number of steps for IOM
   NBLOCK =      1;   KBLOCK =      1    inner block; outer block 
   IBRION =     -1    ionic relax: 0-MD 1-quasi-New 2-CG
   NFREE  =      0    steps in history (QN), initial steepest desc. (CG)
   ISIF   =      2    stress and relaxation
   IWAVPR =     10    prediction:  0-non 1-charg 2-wave 3-comb
   ISYM   =      2    0-nonsym 1-usesym 2-fastsym
   LCORR  =      T    Harris-Foulkes like correction to forces

   POTIM  = 0.5000    time-step for ionic-motion
   TEIN   =    0.0    initial temperature
   TEBEG  =    0.0;   TEEND  =   0.0 temperature during run
   SMASS  =  -3.00    Nose mass-parameter (am)
   estimated Nose-frequenzy (Omega)   =  0.10E-29 period in steps = 0.13E+47 mass=  -0.153E-26a.u.
   SCALEE = 1.0000    scale energy and forces
   NPACO  =    256;   APACO  = 16.0  distance and # of slots for P.C.
   PSTRESS=    0.0 pullay stress

  Mass of Ions in am
   POMASS =  22.99180.95 16.00 19.00
  Ionic Valenz
   ZVAL   =   9.00 13.00  6.00  7.00
  Atomic Wigner-Seitz radii
   RWIGS  =  -1.00 -1.00 -1.00 -1.00
  virtual crystal weights 
   VCA    =   1.00  1.00  1.00  1.00
   NELECT =     192.0000    total number of electrons
   NUPDOWN=      -1.0000    fix difference up-down

 DOS related values:
   EMIN   =  10.00;   EMAX   =-10.00  energy-range for DOS
   EFERMI =   0.00
   ISMEAR =     0;   SIGMA  =   0.01  broadening in eV -4-tet -1-fermi 0-gaus

 Electronic relaxation 2 (details)
   IALGO  =     38    algorithm
   LDIAG  =      T    sub-space diagonalisation (order eigenvalues)
   LSUBROT=      F    optimize rotation matrix (better conditioning)
   TURBO    =      0    0=normal 1=particle mesh
   IRESTART =      0    0=no restart 2=restart with 2 vectors
   NREBOOT  =      0    no. of reboots
   NMIN     =      0    reboot dimension
   EREF     =   0.00    reference energy to select bands
   IMIX   =      4    mixing-type and parameters
     AMIX     =   0.40;   BMIX     =  1.00
     AMIX_MAG =   1.60;   BMIX_MAG =  1.00
     AMIN     =   0.10
     WC   =   100.;   INIMIX=   1;  MIXPRE=   1;  MAXMIX= -45

 Intra band minimization:
   WEIMIN = 0.0000     energy-eigenvalue tresh-hold
   EBREAK =  0.22E-10  absolut break condition
   DEPER  =   0.30     relativ break condition  

   TIME   =   0.40     timestep for ELM

  volume/ion in A,a.u.               =      13.79        93.06
  Fermi-wavevector in a.u.,A,eV,Ry     =   1.365357  2.580151 25.363988  1.864201
  Thomas-Fermi vector in A             =   2.491593

 Write flags
   LWAVE        =      T    write WAVECAR
   LDOWNSAMPLE  =      F    k-point downsampling of WAVECAR
   LCHARG       =      T    write CHGCAR
   LVTOT        =      F    write LOCPOT, total local potential
   LVHAR        =      F    write LOCPOT, Hartree potential only
   LELF         =      F    write electronic localiz. function (ELF)
   LORBIT       =      0    0 simple, 1 ext, 2 COOP (PROOUT), +10 PAW based schemes


 Dipole corrections
   LMONO  =      F    monopole corrections only (constant potential shift)
   LDIPOL =      F    correct potential (dipole corrections)
   IDIPOL =      0    1-x, 2-y, 3-z, 4-all directions 
   EPSILON=  1.0000000 bulk dielectric constant

 Exchange correlation treatment:
   GGA     =    --    GGA type
   LEXCH   =     8    internal setting for exchange type
   VOSKOWN=      0    Vosko Wilk Nusair interpolation
   LHFCALC =     F    Hartree Fock is set to
   LHFONE  =     F    Hartree Fock one center treatment
   AEXX    =    0.0000 exact exchange contribution

 Linear response parameters
   LEPSILON=     F    determine dielectric tensor
   LRPA    =     F    only Hartree local field effects (RPA)
   LNABLA  =     F    use nabla operator in PAW spheres
   LVEL    =     F    velocity operator in full k-point grid
   LINTERFAST=   F  fast interpolation
   KINTER  =     0    interpolate to denser k-point grid
   CSHIFT  =0.1000    complex shift for real part using Kramers Kronig
   OMEGAMAX=  -1.0    maximum frequency
   DEG_THRESHOLD= 0.2000000E-02 threshold for treating states as degnerate
   RTIME   =   -0.100 relaxation time in fs
  (WPLASMAI=    0.000 imaginary part of plasma frequency in eV, 0.658/RTIME)
   DFIELD  = 0.0000000 0.0000000 0.0000000 field for delta impulse in time

 Orbital magnetization related:
   ORBITALMAG=     F  switch on orbital magnetization
   LMAGBLOCH =     F  use Bloch summation to obtain orbital mag.
   LCHIMAG   =     T  perturbation theory with respect to B field
   DQ        =  0.003000  dq finite difference perturbation B field
   LGAUGE    =     T  gauge transformation for 0 moment terms
   NUCIND    =     F  nuclear independent calculation        
   MAGPOS    =    0.0000    0.0000    0.0000  position of magnetic moment in nuclear independent calculation
   MAGATOM   =     0  atom on which magnetic dipole is placed
   JATOM     =     0  atom on which magnetic dipole is evaluated
   MAGDIPOL  =    0.0000    0.0000    0.0000 magnetic dipole

 Orbital magnetization related:
   ORBITALMAG=     F  switch on orbital magnetization
   LCHIMAG   =     T  perturbation theory with respect to B field
   DQ        =  0.003000  dq finite difference perturbation B field
   LLRAUG    =     F  two centre corrections for induced B field



--------------------------------------------------------------------------------------------------------


 Static calculation
 charge density and potential will be updated during run
 non-spin polarized calculation
 Variant of blocked Davidson
 Davidson routine will perform the subspace rotation
 perform sub-space diagonalisation
    after iterative eigenvector-optimisation
 modified Broyden-mixing scheme, WC =      100.0
 initial mixing is a Kerker type mixing with AMIX =  0.4000 and BMIX =      1.0000
 Hartree-type preconditioning will be used
 using additional bands           19
 real space projection scheme for non local part
 use partial core corrections
 calculate Harris-corrections to forces   (improved forces if not selfconsistent)
 use gradient corrections 
 use of overlap-Matrix (Vanderbilt PP)
 Gauss-broadening in eV      SIGMA  =   0.01


--------------------------------------------------------------------------------------------------------


  energy-cutoff  :      550.00
  volume of cell :      330.97
      direct lattice vectors                 reciprocal lattice vectors
     8.187945596  0.000000000 -0.016264706     0.122183610 -0.000000000  0.026606920
     0.000000000  5.481073693  0.000000000    -0.000000000  0.182446005 -0.000000000
    -1.606629545  0.000000000  7.377922731     0.000269355 -0.000000000  0.135598161

  length of vectors
     8.187961750  5.481073693  7.550827923     0.125047042  0.182446005  0.135598428



 k-points in units of 2pi/SCALE and weight: NbOF3_W11-333-vasp_21-relcw             
   0.01530662  0.01520383  0.02027564       0.042
   0.04585252  0.01520383  0.02692737       0.042
  -0.04578518  0.01520383  0.00697218       0.042
  -0.01523928  0.01520383  0.01362391       0.042
   0.01530662  0.04561150  0.02027564       0.042
   0.04585252  0.04561150  0.02692737       0.042
  -0.04578518  0.04561150  0.00697218       0.042
  -0.01523928  0.04561150  0.01362391       0.042
   0.01530662  0.07601917  0.02027564       0.042
   0.04585252  0.07601917  0.02692737       0.042
  -0.04578518  0.07601917  0.00697218       0.042
  -0.01523928  0.07601917  0.01362391       0.042
   0.01537396  0.01520383  0.05417518       0.042
   0.04591986  0.01520383  0.06082691       0.042
  -0.04571785  0.01520383  0.04087172       0.042
  -0.01517194  0.01520383  0.04752345       0.042
   0.01537396  0.04561150  0.05417518       0.042
   0.04591986  0.04561150  0.06082691       0.042
  -0.04571785  0.04561150  0.04087172       0.042
  -0.01517194  0.04561150  0.04752345       0.042
   0.01537396  0.07601917  0.05417518       0.042
   0.04591986  0.07601917  0.06082691       0.042
  -0.04571785  0.07601917  0.04087172       0.042
  -0.01517194  0.07601917  0.04752345       0.042

 k-points in reciprocal lattice and weights: NbOF3_W11-333-vasp_21-relcw             
   0.12500000  0.08333333  0.12500000       0.042
   0.37500000  0.08333333  0.12500000       0.042
  -0.37500000  0.08333333  0.12500000       0.042
  -0.12500000  0.08333333  0.12500000       0.042
   0.12500000  0.25000000  0.12500000       0.042
   0.37500000  0.25000000  0.12500000       0.042
  -0.37500000  0.25000000  0.12500000       0.042
  -0.12500000  0.25000000  0.12500000       0.042
   0.12500000  0.41666667  0.12500000       0.042
   0.37500000  0.41666667  0.12500000       0.042
  -0.37500000  0.41666667  0.12500000       0.042
  -0.12500000  0.41666667  0.12500000       0.042
   0.12500000  0.08333333  0.37500000       0.042
   0.37500000  0.08333333  0.37500000       0.042
  -0.37500000  0.08333333  0.37500000       0.042
  -0.12500000  0.08333333  0.37500000       0.042
   0.12500000  0.25000000  0.37500000       0.042
   0.37500000  0.25000000  0.37500000       0.042
  -0.37500000  0.25000000  0.37500000       0.042
  -0.12500000  0.25000000  0.37500000       0.042
   0.12500000  0.41666667  0.37500000       0.042
   0.37500000  0.41666667  0.37500000       0.042
  -0.37500000  0.41666667  0.37500000       0.042
  -0.12500000  0.41666667  0.37500000       0.042

 position of ions in fractional coordinates (direct lattice) 
   0.37077341  0.78981854  0.10765459
   0.62922656  0.21018146  0.89234541
   0.62922656  0.28981854  0.39234541
   0.37077341  0.71018146  0.60765459
   0.15885168  0.25992625  0.29681116
   0.84114835  0.74007378  0.70318887
   0.84114835  0.75992622  0.20318884
   0.15885168  0.24007375  0.79681113
   0.18727681  0.16705812  0.05305399
   0.81272316  0.83294191  0.94694599
   0.81272316  0.66705809  0.44694602
   0.18727681  0.33294188  0.55305401
   0.02856745  0.54678126  0.21400565
   0.97143254  0.45321874  0.78599433
   0.97143254  0.04678126  0.28599433
   0.02856745  0.95321874  0.71400567
   0.37044704  0.46874981  0.31342206
   0.62955296  0.53125019  0.68657797
   0.62955296  0.96874981  0.18657794
   0.37044704  0.03125019  0.81342203
   0.32402532  0.98433885  0.37487656
   0.67597468  0.01566115  0.62512341
   0.67597468  0.48433885  0.12512344
   0.32402532  0.51566115  0.87487659

 position of ions in cartesian coordinates  (Angst):
   2.86291146  4.32905363  0.78823675
   3.71840434  1.15202007  6.57342127
   4.52171911  1.58851678  2.88445991
   2.05959669  3.89255691  4.47719812
   0.82380332  1.42467493  2.18726614
   5.75751293  4.05639893  5.17439210
   6.56082775  4.16521161  1.48543051
   0.02048860  1.31586192  5.87622729
   1.44817421  0.91565785  0.38838222
   5.13314163  4.56541601  6.97327565
   5.93645636  3.65619453  3.28431450
   0.64485940  1.82487900  4.07734374
  -0.10991905  2.99694836  1.57845252
   6.69123503  2.48412533  5.78320540
   7.49454981  0.25641151  2.09424403
  -0.91323385  5.22466218  5.26741399
   2.52964709  2.56925225  2.30637850
   4.05166891  2.91182144  5.05527974
   4.85498373  5.30978910  1.36631816
   1.72633237  0.17128460  5.99533965
   2.05081397  5.39523378  2.76054014
   4.53050213  0.08583992  4.60111767
   5.33381685  2.65469693  0.91215652
   1.24749915  2.82637676  6.44950172



--------------------------------------------------------------------------------------------------------


 k-point   1 :   0.1250 0.0833 0.1250  plane waves:    9710
 k-point   2 :   0.3750 0.0833 0.1250  plane waves:    9696
 k-point   3 :  -0.3750 0.0833 0.1250  plane waves:    9711
 k-point   4 :  -0.1250 0.0833 0.1250  plane waves:    9715
 k-point   5 :   0.1250 0.2500 0.1250  plane waves:    9688
 k-point   6 :   0.3750 0.2500 0.1250  plane waves:    9707
 k-point   7 :  -0.3750 0.2500 0.1250  plane waves:    9681
 k-point   8 :  -0.1250 0.2500 0.1250  plane waves:    9700
 k-point   9 :   0.1250 0.4167 0.1250  plane waves:    9698
 k-point  10 :   0.3750 0.4167 0.1250  plane waves:    9700
 k-point  11 :  -0.3750 0.4167 0.1250  plane waves:    9678
 k-point  12 :  -0.1250 0.4167 0.1250  plane waves:    9685
 k-point  13 :   0.1250 0.0833 0.3750  plane waves:    9700
 k-point  14 :   0.3750 0.0833 0.3750  plane waves:    9713
 k-point  15 :  -0.3750 0.0833 0.3750  plane waves:    9707
 k-point  16 :  -0.1250 0.0833 0.3750  plane waves:    9694
 k-point  17 :   0.1250 0.2500 0.3750  plane waves:    9704
 k-point  18 :   0.3750 0.2500 0.3750  plane waves:    9691
 k-point  19 :  -0.3750 0.2500 0.3750  plane waves:    9680
 k-point  20 :  -0.1250 0.2500 0.3750  plane waves:    9705
 k-point  21 :   0.1250 0.4167 0.3750  plane waves:    9677
 k-point  22 :   0.3750 0.4167 0.3750  plane waves:    9667
 k-point  23 :  -0.3750 0.4167 0.3750  plane waves:    9672
 k-point  24 :  -0.1250 0.4167 0.3750  plane waves:    9681

 maximum and minimum number of plane-waves per node :      9715     9667

 maximum number of plane-waves:      9715
 maximum index in each direction: 
   IXMAX=   16   IYMAX=   10   IZMAX=   14
   IXMIN=  -16   IYMIN=  -10   IZMIN=  -14


 serial   3D FFT for wavefunctions
 parallel 3D FFT for charge:
    minimum data exchange during FFTs selected (reduces bandwidth)


 total amount of memory used by VASP MPI-rank0   549788. kBytes
=======================================================================

   base      :      30000. kBytes
   nonlr-proj:       8361. kBytes
   fftplans  :      20492. kBytes
   grid      :      46129. kBytes
   one-center:        778. kBytes
   wavefun   :     444028. kBytes

     INWAV:  cpu time    0.0000: real time    0.0000
 Broyden mixing: mesh for mixing (old mesh)
   NGX = 31   NGY = 21   NGZ = 29
  (NGX  = 96   NGY  = 64   NGZ  = 96)
  gives a total of  18879 points

 initial charge density was supplied:
 charge density of overlapping atoms calculated
 number of electron     192.0000000 magnetization 
 keeping initial charge density in first step


--------------------------------------------------------------------------------------------------------


 Maximum index for non-local projection operator         2762
 Maximum index for augmentation-charges         8267 (set IRDMAX)


--------------------------------------------------------------------------------------------------------


 First call to EWALD:  gamma=   0.256
 Maximum number of real-space cells 2x 3x 3
 Maximum number of reciprocal cells 3x 2x 3

    FEWALD:  cpu time    0.0065: real time    0.0065


--------------------------------------- Iteration      1(   1)  ---------------------------------------


    POTLOK:  cpu time    0.3568: real time    0.3569
    SETDIJ:  cpu time    0.0481: real time    0.0481
     EDDAV:  cpu time   52.5227: real time   52.5274
       DOS:  cpu time    0.0029: real time    0.0029
    --------------------------------------------
      LOOP:  cpu time   52.9305: real time   52.9352

 eigenvalue-minimisations  :  5576
 total energy-change (2. order) : 0.3499959E+04  (-0.1041136E+05)
 number of electron     192.0000000 magnetization 
 augmentation part      192.0000000 magnetization 

 Free energy of the ion-electron system (eV)
  ---------------------------------------------------
  alpha Z        PSCENC =       632.57616749
  Ewald energy   TEWEN  =    -12471.40503882
  -Hartree energ DENC   =     -6004.49682757
  -exchange      EXHF   =         0.00000000
  -V(xc)+E(xc)   XCENC  =       545.43296928
  PAW double counting   =     15770.03970857   -16012.19339467
  entropy T*S    EENTRO =        -0.00043935
  eigenvalues    EBANDS =       717.10557690
  atomic energy  EATOM  =     20322.90063010
  Solvation  Ediel_sol  =         0.00000000
  ---------------------------------------------------
  free energy    TOTEN  =      3499.95935194 eV

  energy without entropy =     3499.95979129  energy(sigma->0) =     3499.95957161


--------------------------------------------------------------------------------------------------------




--------------------------------------- Iteration      1(   2)  ---------------------------------------


     EDDAV:  cpu time   48.4997: real time   48.5039
       DOS:  cpu time    0.0024: real time    0.0024
    --------------------------------------------
      LOOP:  cpu time   48.5022: real time   48.5063

 eigenvalue-minimisations  :  5560
 total energy-change (2. order) :-0.3091472E+04  (-0.2895966E+04)
 number of electron     192.0000000 magnetization 
 augmentation part      192.0000000 magnetization 

 Free energy of the ion-electron system (eV)
  ---------------------------------------------------
  alpha Z        PSCENC =       632.57616749
  Ewald energy   TEWEN  =    -12471.40503882
  -Hartree energ DENC   =     -6004.49682757
  -exchange      EXHF   =         0.00000000
  -V(xc)+E(xc)   XCENC  =       545.43296928
  PAW double counting   =     15770.03970857   -16012.19339467
  entropy T*S    EENTRO =        -0.00008431
  eigenvalues    EBANDS =     -2374.36664175
  atomic energy  EATOM  =     20322.90063010
  Solvation  Ediel_sol  =         0.00000000
  ---------------------------------------------------
  free energy    TOTEN  =       408.48748833 eV

  energy without entropy =      408.48757264  energy(sigma->0) =      408.48753048


--------------------------------------------------------------------------------------------------------




--------------------------------------- Iteration      1(   3)  ---------------------------------------


     EDDAV:  cpu time   74.7132: real time   74.7199
       DOS:  cpu time    0.0007: real time    0.0007
    --------------------------------------------
      LOOP:  cpu time   74.7139: real time   74.7206

 eigenvalue-minimisations  :  8761
 total energy-change (2. order) :-0.6130331E+03  (-0.6001233E+03)
 number of electron     192.0000000 magnetization 
 augmentation part      192.0000000 magnetization 

 Free energy of the ion-electron system (eV)
  ---------------------------------------------------
  alpha Z        PSCENC =       632.57616749
  Ewald energy   TEWEN  =    -12471.40503882
  -Hartree energ DENC   =     -6004.49682757
  -exchange      EXHF   =         0.00000000
  -V(xc)+E(xc)   XCENC  =       545.43296928
  PAW double counting   =     15770.03970857   -16012.19339467
  entropy T*S    EENTRO =        -0.00000000
  eigenvalues    EBANDS =     -2987.39986405
  atomic energy  EATOM  =     20322.90063010
  Solvation  Ediel_sol  =         0.00000000
  ---------------------------------------------------
  free energy    TOTEN  =      -204.54564966 eV

  energy without entropy =     -204.54564966  energy(sigma->0) =     -204.54564966


--------------------------------------------------------------------------------------------------------




--------------------------------------- Iteration      1(   4)  ---------------------------------------


     EDDAV:  cpu time   74.1549: real time   74.1614
       DOS:  cpu time    0.0007: real time    0.0007
    --------------------------------------------
      LOOP:  cpu time   74.1556: real time   74.1621

 eigenvalue-minimisations  :  8736
 total energy-change (2. order) :-0.3478379E+02  (-0.3466230E+02)
 number of electron     192.0000000 magnetization 
 augmentation part      192.0000000 magnetization 

 Free energy of the ion-electron system (eV)
  ---------------------------------------------------
  alpha Z        PSCENC =       632.57616749
  Ewald energy   TEWEN  =    -12471.40503882
  -Hartree energ DENC   =     -6004.49682757
  -exchange      EXHF   =         0.00000000
  -V(xc)+E(xc)   XCENC  =       545.43296928
  PAW double counting   =     15770.03970857   -16012.19339467
  entropy T*S    EENTRO =        -0.00000000
  eigenvalues    EBANDS =     -3022.18365427
  atomic energy  EATOM  =     20322.90063010
  Solvation  Ediel_sol  =         0.00000000
  ---------------------------------------------------
  free energy    TOTEN  =      -239.32943988 eV

  energy without entropy =     -239.32943988  energy(sigma->0) =     -239.32943988


--------------------------------------------------------------------------------------------------------




--------------------------------------- Iteration      1(   5)  ---------------------------------------


     EDDAV:  cpu time   81.8114: real time   81.8186
       DOS:  cpu time    0.0007: real time    0.0007
    CHARGE:  cpu time    2.5636: real time    2.5639
    MIXING:  cpu time    0.0105: real time    0.0105
    --------------------------------------------
      LOOP:  cpu time   84.3863: real time   84.3937

 eigenvalue-minimisations  :  8592
 total energy-change (2. order) :-0.5412241E+00  (-0.5403944E+00)
 number of electron     191.9999631 magnetization 
 augmentation part       26.9108645 magnetization 

 Broyden mixing:
  rms(total) = 0.11700E+02    rms(broyden)= 0.11700E+02
  rms(prec ) = 0.12408E+02
  weight for this iteration     100.00

 Free energy of the ion-electron system (eV)
  ---------------------------------------------------
  alpha Z        PSCENC =       632.57616749
  Ewald energy   TEWEN  =    -12471.40503882
  -Hartree energ DENC   =     -6004.49682757
  -exchange      EXHF   =         0.00000000
  -V(xc)+E(xc)   XCENC  =       545.43296928
  PAW double counting   =     15770.03970857   -16012.19339467
  entropy T*S    EENTRO =        -0.00000000
  eigenvalues    EBANDS =     -3022.72487835
  atomic energy  EATOM  =     20322.90063010
  Solvation  Ediel_sol  =         0.00000000
  ---------------------------------------------------
  free energy    TOTEN  =      -239.87066397 eV

  energy without entropy =     -239.87066397  energy(sigma->0) =     -239.87066397


--------------------------------------------------------------------------------------------------------




--------------------------------------- Iteration      1(   6)  ---------------------------------------


    POTLOK:  cpu time    0.3629: real time    0.3629
    SETDIJ:  cpu time    0.0471: real time    0.0471
     EDDAV:  cpu time   81.9785: real time   81.9858
       DOS:  cpu time    0.0007: real time    0.0007
    CHARGE:  cpu time    2.5780: real time    2.5782
    MIXING:  cpu time    0.0104: real time    0.0104
    --------------------------------------------
      LOOP:  cpu time   84.9776: real time   84.9851

 eigenvalue-minimisations  :  8616
 total energy-change (2. order) : 0.4120994E+02  (-0.1788734E+02)
 number of electron     191.9999690 magnetization 
 augmentation part       23.2043152 magnetization 

 Broyden mixing:
  rms(total) = 0.19458E+02    rms(broyden)= 0.19458E+02
  rms(prec ) = 0.19489E+02
  weight for this iteration     100.00

 eigenvalues of (default mixing * dielectric matrix)
  average eigenvalue GAMMA=   0.8945
  0.8945

 Free energy of the ion-electron system (eV)
  ---------------------------------------------------
  alpha Z        PSCENC =       632.57616749
  Ewald energy   TEWEN  =    -12471.40503882
  -Hartree energ DENC   =     -6149.59896546
  -exchange      EXHF   =         0.00000000
  -V(xc)+E(xc)   XCENC  =       561.72586206
  PAW double counting   =     18508.34583390   -18766.30999189
  entropy T*S    EENTRO =        -0.00000000
  eigenvalues    EBANDS =     -2836.89522293
  atomic energy  EATOM  =     20322.90063010
  Solvation  Ediel_sol  =         0.00000000
  ---------------------------------------------------
  free energy    TOTEN  =      -198.66072553 eV

  energy without entropy =     -198.66072553  energy(sigma->0) =     -198.66072553


--------------------------------------------------------------------------------------------------------




--------------------------------------- Iteration      1(   7)  ---------------------------------------


    POTLOK:  cpu time    0.3693: real time    0.3693
    SETDIJ:  cpu time    0.0462: real time    0.0462
     EDDAV:  cpu time   81.4352: real time   81.4422
       DOS:  cpu time    0.0006: real time    0.0006
    CHARGE:  cpu time    2.6163: real time    2.6166
    MIXING:  cpu time    0.0100: real time    0.0100
    --------------------------------------------
      LOOP:  cpu time   84.4776: real time   84.4849

 eigenvalue-minimisations  :  8536
 total energy-change (2. order) :-0.3459172E+01  (-0.1237395E+01)
 number of electron     191.9999690 magnetization 
 augmentation part       22.8291746 magnetization 

 Broyden mixing:
  rms(total) = 0.17573E+02    rms(broyden)= 0.17573E+02
  rms(prec ) = 0.17641E+02
  weight for this iteration     100.00

 eigenvalues of (default mixing * dielectric matrix)
  average eigenvalue GAMMA=   2.3701
  0.8101  3.9301

 Free energy of the ion-electron system (eV)
  ---------------------------------------------------
  alpha Z        PSCENC =       632.57616749
  Ewald energy   TEWEN  =    -12471.40503882
  -Hartree energ DENC   =     -6179.87137034
  -exchange      EXHF   =         0.00000000
  -V(xc)+E(xc)   XCENC  =       563.54482966
  PAW double counting   =     17029.59546689   -17289.93840309
  entropy T*S    EENTRO =        -0.00000000
  eigenvalues    EBANDS =     -2809.52217940
  atomic energy  EATOM  =     20322.90063010
  Solvation  Ediel_sol  =         0.00000000
  ---------------------------------------------------
  free energy    TOTEN  =      -202.11989752 eV

  energy without entropy =     -202.11989752  energy(sigma->0) =     -202.11989752


--------------------------------------------------------------------------------------------------------




--------------------------------------- Iteration      1(   8)  ---------------------------------------


    POTLOK:  cpu time    0.3541: real time    0.3542
    SETDIJ:  cpu time    0.0475: real time    0.0475
     EDDAV:  cpu time   69.4817: real time   69.4877
       DOS:  cpu time    0.0008: real time    0.0008
    CHARGE:  cpu time    2.6357: real time    2.6360
    MIXING:  cpu time    0.0119: real time    0.0119
    --------------------------------------------
      LOOP:  cpu time   72.5317: real time   72.5380

 eigenvalue-minimisations  :  7984
 total energy-change (2. order) :-0.4119483E+01  (-0.2890825E+01)
 number of electron     191.9999682 magnetization 
 augmentation part       24.1103842 magnetization 

 Broyden mixing:
  rms(total) = 0.36584E+02    rms(broyden)= 0.36584E+02
  rms(prec ) = 0.36635E+02
  weight for this iteration     100.00

 eigenvalues of (default mixing * dielectric matrix)
  average eigenvalue GAMMA=   1.7062
  2.1637  2.1637  0.7913

 Free energy of the ion-electron system (eV)
  ---------------------------------------------------
  alpha Z        PSCENC =       632.57616749
  Ewald energy   TEWEN  =    -12471.40503882
  -Hartree energ DENC   =     -6174.64061370
  -exchange      EXHF   =         0.00000000
  -V(xc)+E(xc)   XCENC  =       560.51900519
  PAW double counting   =     13003.89927800   -13258.65276609
  entropy T*S    EENTRO =        -0.00000000
  eigenvalues    EBANDS =     -2821.43604233
  atomic energy  EATOM  =     20322.90063010
  Solvation  Ediel_sol  =         0.00000000
  ---------------------------------------------------
  free energy    TOTEN  =      -206.23938015 eV

  energy without entropy =     -206.23938015  energy(sigma->0) =     -206.23938015


--------------------------------------------------------------------------------------------------------




--------------------------------------- Iteration      1(   9)  ---------------------------------------


    POTLOK:  cpu time    0.3915: real time    0.3915
    SETDIJ:  cpu time    0.0509: real time    0.0509
     EDDAV:  cpu time   62.6273: real time   62.6328
       DOS:  cpu time    0.0006: real time    0.0006
    CHARGE:  cpu time    2.3563: real time    2.3566
    MIXING:  cpu time    0.0105: real time    0.0105
    --------------------------------------------
      LOOP:  cpu time   65.4372: real time   65.4429

 eigenvalue-minimisations  :  7736
 total energy-change (2. order) : 0.9396556E+01  (-0.3055263E+01)
 number of electron     191.9999690 magnetization 
 augmentation part       23.5835875 magnetization 

 Broyden mixing:
  rms(total) = 0.24467E+02    rms(broyden)= 0.24467E+02
  rms(prec ) = 0.24470E+02
  weight for this iteration     100.00

 eigenvalues of (default mixing * dielectric matrix)
  average eigenvalue GAMMA=   1.1907
  1.9053  1.4319  0.7128  0.7128

 Free energy of the ion-electron system (eV)
  ---------------------------------------------------
  alpha Z        PSCENC =       632.57616749
  Ewald energy   TEWEN  =    -12471.40503882
  -Hartree energ DENC   =     -6069.54217799
  -exchange      EXHF   =         0.00000000
  -V(xc)+E(xc)   XCENC  =       558.15200724
  PAW double counting   =     38752.76051040   -39005.91641391
  entropy T*S    EENTRO =        -0.00000000
  eigenvalues    EBANDS =     -2916.36850865
  atomic energy  EATOM  =     20322.90063010
  Solvation  Ediel_sol  =         0.00000000
  ---------------------------------------------------
  free energy    TOTEN  =      -196.84282414 eV

  energy without entropy =     -196.84282414  energy(sigma->0) =     -196.84282414


--------------------------------------------------------------------------------------------------------




--------------------------------------- Iteration      1(  10)  ---------------------------------------


    POTLOK:  cpu time    0.3334: real time    0.3334
    SETDIJ:  cpu time    0.0460: real time    0.0460
     EDDAV:  cpu time   68.1878: real time   68.1937
       DOS:  cpu time    0.0007: real time    0.0007
    CHARGE:  cpu time    2.4113: real time    2.4115
    MIXING:  cpu time    0.0111: real time    0.0111
    --------------------------------------------
      LOOP:  cpu time   70.9903: real time   70.9964

 eigenvalue-minimisations  :  8664
 total energy-change (2. order) :-0.3969121E+00  (-0.4553531E+00)
 number of electron     191.9999693 magnetization 
 augmentation part       23.3943556 magnetization 

 Broyden mixing:
  rms(total) = 0.18718E+02    rms(broyden)= 0.18718E+02
  rms(prec ) = 0.18723E+02
  weight for this iteration     100.00

 eigenvalues of (default mixing * dielectric matrix)
  average eigenvalue GAMMA=   1.0032
  1.9092  1.4820  0.7539  0.7539  0.1169

 Free energy of the ion-electron system (eV)
  ---------------------------------------------------
  alpha Z        PSCENC =       632.57616749
  Ewald energy   TEWEN  =    -12471.40503882
  -Hartree energ DENC   =     -6074.80661824
  -exchange      EXHF   =         0.00000000
  -V(xc)+E(xc)   XCENC  =       558.26943480
  PAW double counting   =     32504.91604617   -32757.16161103
  entropy T*S    EENTRO =        -0.00000000
  eigenvalues    EBANDS =     -2912.52874667
  atomic energy  EATOM  =     20322.90063010
  Solvation  Ediel_sol  =         0.00000000
  ---------------------------------------------------
  free energy    TOTEN  =      -197.23973620 eV

  energy without entropy =     -197.23973620  energy(sigma->0) =     -197.23973620


--------------------------------------------------------------------------------------------------------




--------------------------------------- Iteration      1(  11)  ---------------------------------------


    POTLOK:  cpu time    0.3331: real time    0.3331
    SETDIJ:  cpu time    0.0451: real time    0.0451
     EDDAV:  cpu time   70.2154: real time   70.2216
       DOS:  cpu time    0.0007: real time    0.0007
    CHARGE:  cpu time    2.4113: real time    2.4116
    MIXING:  cpu time    0.0113: real time    0.0113
    --------------------------------------------
      LOOP:  cpu time   73.0168: real time   73.0233

 eigenvalue-minimisations  :  8736
 total energy-change (2. order) : 0.2049208E+00  (-0.4250707E-01)
 number of electron     191.9999689 magnetization 
 augmentation part       23.5156558 magnetization 

 Broyden mixing:
  rms(total) = 0.12840E+02    rms(broyden)= 0.12840E+02
  rms(prec ) = 0.12843E+02
  weight for this iteration     100.00

 eigenvalues of (default mixing * dielectric matrix)
  average eigenvalue GAMMA=   1.1029
  2.1876  0.9237  0.9237  1.0732  0.7545  0.7545

 Free energy of the ion-electron system (eV)
  ---------------------------------------------------
  alpha Z        PSCENC =       632.57616749
  Ewald energy   TEWEN  =    -12471.40503882
  -Hartree energ DENC   =     -6075.68812324
  -exchange      EXHF   =         0.00000000
  -V(xc)+E(xc)   XCENC  =       557.83120751
  PAW double counting   =     28396.19155362   -28645.95714575
  entropy T*S    EENTRO =        -0.00000000
  eigenvalues    EBANDS =     -2913.48406627
  atomic energy  EATOM  =     20322.90063010
  Solvation  Ediel_sol  =         0.00000000
  ---------------------------------------------------
  free energy    TOTEN  =      -197.03481536 eV

  energy without entropy =     -197.03481536  energy(sigma->0) =     -197.03481536


--------------------------------------------------------------------------------------------------------




--------------------------------------- Iteration      1(  12)  ---------------------------------------


    POTLOK:  cpu time    0.3263: real time    0.3263
    SETDIJ:  cpu time    0.0460: real time    0.0460
     EDDAV:  cpu time   68.0367: real time   68.0427
       DOS:  cpu time    0.0006: real time    0.0006
    CHARGE:  cpu time    2.4135: real time    2.4137
    MIXING:  cpu time    0.0114: real time    0.0114
    --------------------------------------------
      LOOP:  cpu time   70.8345: real time   70.8408

 eigenvalue-minimisations  :  8336
 total energy-change (2. order) : 0.9403818E-01  (-0.2465097E-01)
 number of electron     191.9999688 magnetization 
 augmentation part       23.5998950 magnetization 

 Broyden mixing:
  rms(total) = 0.11232E+01    rms(broyden)= 0.11232E+01
  rms(prec ) = 0.11271E+01
  weight for this iteration     100.00

 eigenvalues of (default mixing * dielectric matrix)
  average eigenvalue GAMMA=   1.3720
  1.8533  1.8533  2.3345  1.1727  0.7949  0.7949  0.8006

 Free energy of the ion-electron system (eV)
  ---------------------------------------------------
  alpha Z        PSCENC =       632.57616749
  Ewald energy   TEWEN  =    -12471.40503882
  -Hartree energ DENC   =     -6082.66796128
  -exchange      EXHF   =         0.00000000
  -V(xc)+E(xc)   XCENC  =       557.72558602
  PAW double counting   =     23443.78788234   -23689.42919356
  entropy T*S    EENTRO =        -0.00000000
  eigenvalues    EBANDS =     -2910.42884947
  atomic energy  EATOM  =     20322.90063010
  Solvation  Ediel_sol  =         0.00000000
  ---------------------------------------------------
  free energy    TOTEN  =      -196.94077718 eV

  energy without entropy =     -196.94077718  energy(sigma->0) =     -196.94077718


--------------------------------------------------------------------------------------------------------




--------------------------------------- Iteration      1(  13)  ---------------------------------------


    POTLOK:  cpu time    0.3246: real time    0.3247
    SETDIJ:  cpu time    0.0460: real time    0.0460
     EDDAV:  cpu time   74.7680: real time   74.7744
       DOS:  cpu time    0.0006: real time    0.0006
    CHARGE:  cpu time    2.3404: real time    2.3406
    MIXING:  cpu time    0.0118: real time    0.0118
    --------------------------------------------
      LOOP:  cpu time   77.4914: real time   77.4981

 eigenvalue-minimisations  :  9056
 total energy-change (2. order) : 0.8728544E-02  (-0.5651145E-02)
 number of electron     191.9999688 magnetization 
 augmentation part       23.6388453 magnetization 

 Broyden mixing:
  rms(total) = 0.10918E+00    rms(broyden)= 0.10917E+00
  rms(prec ) = 0.11609E+00
  weight for this iteration     100.00

 eigenvalues of (default mixing * dielectric matrix)
  average eigenvalue GAMMA=   1.3452
  1.6614  1.6614  2.4938  1.6011  1.0200  0.8189  0.8189  0.6861

 Free energy of the ion-electron system (eV)
  ---------------------------------------------------
  alpha Z        PSCENC =       632.57616749
  Ewald energy   TEWEN  =    -12471.40503882
  -Hartree energ DENC   =     -6087.50555153
  -exchange      EXHF   =         0.00000000
  -V(xc)+E(xc)   XCENC  =       557.74657068
  PAW double counting   =     23041.39706964   -23286.16756166
  entropy T*S    EENTRO =        -0.00000000
  eigenvalues    EBANDS =     -2906.47433454
  atomic energy  EATOM  =     20322.90063010
  Solvation  Ediel_sol  =         0.00000000
  ---------------------------------------------------
  free energy    TOTEN  =      -196.93204864 eV

  energy without entropy =     -196.93204864  energy(sigma->0) =     -196.93204864


--------------------------------------------------------------------------------------------------------




--------------------------------------- Iteration      1(  14)  ---------------------------------------


    POTLOK:  cpu time    0.2980: real time    0.2980
    SETDIJ:  cpu time    0.0431: real time    0.0431
     EDDAV:  cpu time   68.9787: real time   68.9846
[...]
    18     -0.289932E+01      0.131818E+01     -0.695260E+02
    19     -0.247899E+01     -0.649438E+00     -0.692372E+02
    20     -0.247904E+01     -0.649478E+00     -0.692371E+02
    21     -0.613518E+01      0.808288E+01     -0.626750E+02
    22     -0.613520E+01      0.808294E+01     -0.626750E+02
    23     -0.498922E+01     -0.712108E+01     -0.618207E+02
    24     -0.498927E+01     -0.712108E+01     -0.618206E+02

 -------------------------------------------------------------
   one center paramagnetic contribution
 -------------------------------------------------------------
     1     -0.111811E+01     -0.383897E+01      0.537007E+02
     2     -0.111809E+01     -0.383895E+01      0.537007E+02
     3     -0.104360E+01      0.450383E+01      0.544678E+02
     4     -0.104359E+01      0.450383E+01      0.544678E+02
     5      0.342134E+02     -0.178419E+03      0.601733E+04
     6      0.342129E+02     -0.178411E+03      0.601734E+04
     7      0.387016E+02      0.198182E+03      0.601945E+04
     8      0.386961E+02      0.198173E+03      0.601946E+04
     9      0.668442E+02     -0.598666E+01      0.265111E+03
    10      0.668439E+02     -0.598691E+01      0.265110E+03
    11      0.700127E+02      0.115947E+02      0.241157E+03
    12      0.700130E+02      0.115949E+02      0.241156E+03
    13     -0.493978E+02      0.499067E+02      0.623135E+03
    14     -0.493977E+02      0.499068E+02      0.623136E+03
    15     -0.425349E+02     -0.451049E+02      0.625639E+03
    16     -0.425351E+02     -0.451048E+02      0.625637E+03
    17     -0.145459E+02      0.475182E+01      0.256164E+03
    18     -0.145465E+02      0.475217E+01      0.256165E+03
    19     -0.121077E+02     -0.143534E+01      0.257499E+03
    20     -0.121080E+02     -0.143551E+01      0.257499E+03
    21     -0.299604E+02      0.370406E+02      0.288940E+03
    22     -0.299605E+02      0.370409E+02      0.288940E+03
    23     -0.250020E+02     -0.320521E+02      0.292742E+03
    24     -0.250023E+02     -0.320521E+02      0.292742E+03

 -------------------------------------------------------------
   one center diamagnetic contribution
 -------------------------------------------------------------
     1     -0.682893E-02      0.230138E-01     -0.153631E+03
     2     -0.682906E-02      0.230140E-01     -0.153631E+03
     3     -0.713955E-02     -0.230826E-01     -0.153632E+03
     4     -0.713956E-02     -0.230829E-01     -0.153632E+03
     5     -0.150259E-01      0.270741E-01      0.397761E+02
     6     -0.150260E-01      0.270742E-01      0.397761E+02
     7     -0.158505E-01     -0.262847E-01      0.397756E+02
     8     -0.158507E-01     -0.262849E-01      0.397756E+02
     9      0.539939E-01     -0.102967E-01     -0.336326E+02
    10      0.539941E-01     -0.102967E-01     -0.336326E+02
    11      0.532782E-01      0.554537E-02     -0.336322E+02
    12      0.532777E-01      0.554551E-02     -0.336322E+02
    13     -0.462146E-01      0.672546E-02     -0.334588E+02
    14     -0.462143E-01      0.672482E-02     -0.334588E+02
    15     -0.433805E-01     -0.826907E-02     -0.334610E+02
    16     -0.433802E-01     -0.826899E-02     -0.334610E+02
    17     -0.536215E-01      0.138277E-01     -0.417545E+02
    18     -0.536220E-01      0.138273E-01     -0.417545E+02
    19     -0.533112E-01     -0.136312E-01     -0.417536E+02
    20     -0.533119E-01     -0.136311E-01     -0.417536E+02
    21     -0.663606E-01      0.131644E+00     -0.417530E+02
    22     -0.663612E-01      0.131645E+00     -0.417530E+02
    23     -0.653077E-01     -0.133494E+00     -0.417503E+02
    24     -0.653079E-01     -0.133494E+00     -0.417503E+02
 -------------------------------------------------------------
 -------------------------------------------------------------


 -------------------------------------------------------------
  Absolute Chemical Shift tensors
 -------------------------------------------------------------
  UNSYMMETRIZED TENSORS 
 ion    1
       -184.559170         -5.663974         -1.148956
         -5.700232       -192.474191         -4.710832
         -0.719045         -4.403103       -189.203180
 ion    2
       -184.559113         -5.663970         -1.148948
         -5.700229       -192.474189         -4.710834
         -0.719017         -4.403079       -189.203187
 ion    3
       -183.915142          5.472817         -0.524318
          5.181606       -191.898976          5.967030
         -0.622810          5.013902       -188.393518
 ion    4
       -183.915199          5.472822         -0.524323
          5.181617       -191.899011          5.967015
         -0.622798          5.013900       -188.393563
 ion    5
       6355.075776         91.594964          5.742306
        -91.905283       6307.418660         14.186127
         34.906420       -183.406494       6007.660368
 ion    6
       6355.083720         91.606662          5.736691
        -91.893666       6307.412443         14.192479
         34.905902       -183.398330       6007.670411
 ion    7
       6480.839465        -47.272613         63.428745
        109.871885       6373.194892        -18.796751
         39.458448        203.182747       6009.425444
 ion    8
       6480.832229        -47.281561         63.427193
        109.860339       6373.180699        -18.805461
         39.452898        203.174421       6009.431404
 ion    9
        542.858048        -14.009063         70.201718
          0.539214        565.998268         13.338468
         79.546710         -7.130619        184.945247
 ion   10
        542.854192        -14.009336         70.201119
          0.538663        565.993911         13.337860
         79.546349         -7.130911        184.944391
 ion   11
        560.387640          6.112847         90.387262
         -3.748307        566.609589         -0.020436
         83.407645         13.903561        156.295909
 ion   12
        560.385819          6.111972         90.387082
         -3.749336        566.607683         -0.019740
         83.407999         13.903749        156.294884
 ion   13
        390.151169        207.198459        -61.165133
        191.531179        365.037717         53.858942
        -59.284423         58.972000        611.755525
 ion   14
        390.151627        207.198153        -61.165051
        191.530873        365.038562         53.859138
        -59.284317         58.972228        611.757436
 ion   15
        377.541608       -221.797233        -57.423380
       -193.346559        362.737497        -52.598351
        -51.043215        -53.174109        614.774752
 ion   16
        377.539608       -221.795549        -57.423104
       -193.344939        362.735482        -52.598046
        -51.043414        -53.173928        614.772799
 ion   17
         35.056651        -35.437288        -12.110832
        -30.827845         75.068800          2.785481
        -17.498744          6.083744        144.883204
 ion   18
         35.057648        -35.437515        -12.111009
        -30.828034         75.069733          2.785335
        -17.499455          6.084175        144.884963
 ion   19
         38.594248         39.771045        -14.209939
         30.872888         73.615520         -5.164629
        -14.640048         -2.098408        146.507807
 ion   20
         38.594359         39.770704        -14.210031
         30.872815         73.615041         -5.164682
        -14.640311         -2.098621        146.508140
 ion   21
         94.002455         27.848927        -35.343605
         28.562337         71.016753         32.385407
        -36.161940         45.255170        184.512435
 ion   22
         94.002452         27.848405        -35.343779
         28.562128         71.016828         32.385316
        -36.162036         45.255431        184.512443
 ion   23
         82.532413        -36.825924        -24.253520
        -33.696339         67.880644        -34.067598
        -30.056535        -39.306640        189.170560
 ion   24
         82.532192        -36.825694        -24.253558
        -33.695916         67.880718        -34.067933
        -30.056840        -39.306658        189.170874
  SYMMETRIZED TENSORS 
 ion    1
       -184.237156         -5.568396         -0.836636
         -5.440921       -192.186592         -5.338928
         -0.670917         -4.708496       -188.798362
 ion    2
       -184.237156         -5.568396         -0.836636
         -5.440921       -192.186592         -5.338928
         -0.670917         -4.708496       -188.798362
 ion    3
       -184.237156          5.568396         -0.836636
          5.440921       -192.186592          5.338928
         -0.670917          4.708496       -188.798362
 ion    4
       -184.237156          5.568396         -0.836636
          5.440921       -192.186592          5.338928
         -0.670917          4.708496       -188.798362
 ion    5
       6417.957798         69.438950         34.583734
       -100.882793       6340.301673         16.495204
         37.180917       -193.290498       6008.546907
 ion    6
       6417.957798         69.438950         34.583734
       -100.882793       6340.301673         16.495204
         37.180917       -193.290498       6008.546907
 ion    7
       6417.957798        -69.438950         34.583734
        100.882793       6340.301673        -16.495204
         37.180917        193.290498       6008.546907
 ion    8
       6417.957798        -69.438950         34.583734
        100.882793       6340.301673        -16.495204
         37.180917        193.290498       6008.546907
 ion    9
        551.621425        -10.060804         80.294295
          2.143880        566.302363          6.679126
         81.477176        -10.517210        170.620108
 ion   10
        551.621425        -10.060804         80.294295
          2.143880        566.302363          6.679126
         81.477176        -10.517210        170.620108
 ion   11
        551.621425         10.060804         80.294295
         -2.143880        566.302363         -6.679126
         81.477176         10.517210        170.620108
 ion   12
        551.621425         10.060804         80.294295
         -2.143880        566.302363         -6.679126
         81.477176         10.517210        170.620108
 ion   13
        383.846003        214.497349        -59.294167
        192.438387        363.887314         53.228619
        -55.163842         56.073066        613.265128
 ion   14
        383.846003        214.497349        -59.294167
        192.438387        363.887314         53.228619
        -55.163842         56.073066        613.265128
 ion   15
        383.846003       -214.497349        -59.294167
       -192.438387        363.887314        -53.228619
        -55.163842        -56.073066        613.265128
 ion   16
        383.846003       -214.497349        -59.294167
       -192.438387        363.887314        -53.228619
        -55.163842        -56.073066        613.265128
 ion   17
         36.825726        -37.604138        -13.160453
        -30.850395         74.342274          3.975032
        -16.069639          4.091237        145.696028
 ion   18
         36.825726        -37.604138        -13.160453
        -30.850395         74.342274          3.975032
        -16.069639          4.091237        145.696028
 ion   19
         36.825726         37.604138        -13.160453
         30.850395         74.342274         -3.975032
        -16.069639         -4.091237        145.696028
 ion   20
         36.825726         37.604138        -13.160453
         30.850395         74.342274         -3.975032
        -16.069639         -4.091237        145.696028
 ion   21
         88.267378         32.337238        -29.798615
         31.129180         69.448736         33.226563
        -33.109338         42.280975        186.841578
 ion   22
         88.267378         32.337238        -29.798615
         31.129180         69.448736         33.226563
        -33.109338         42.280975        186.841578
 ion   23
         88.267378        -32.337238        -29.798615
        -31.129180         69.448736        -33.226563
        -33.109338        -42.280975        186.841578
 ion   24
         88.267378        -32.337238        -29.798615
        -31.129180         69.448736        -33.226563
        -33.109338        -42.280975        186.841578
 -------------------------------------------------------------


 -------------------------------------------------------------
  G=0 CONTRIBUTION TO CHEMICAL SHIFT (field along BDIR) 
 -------------------------------------------------------------
   BDIR                X                 Y                 Z
 -------------------------------------------------------------
     1         -4.160918          0.000000          0.046402
     2          0.000000         -4.143028          0.000000
     3          0.044396          0.000000         -4.336870
 -------------------------------------------------------------

  Approximate magnetic susceptibility, pGv (10^-6 cm^3/mole) 
     1        -98.993876          0.000000          1.103962
     2          0.000000        -98.568251          0.000000
     3          1.056234          0.000000       -103.180020
 -------------------------------------------------------------


 --------------------------------------------------------------------------
  Core NMR properties        

  typ  El   Core shift (ppm)
 ----------------------------
    1  Na    -377.2811014
    2  Ta   -9212.7246451
    3  O     -271.0766935
    4  F     -306.4193758
 ----------------------------

  Core contribution to magnetic susceptibility:    -43.86  10^-6 cm^3/mole
 --------------------------------------------------------------------------


 ---------------------------------------------------------------------------------
  CSA tensor (J. Mason, Solid State Nucl. Magn. Reson. 2, 285 (1993))             
 ---------------------------------------------------------------------------------
             EXCLUDING G=0 CONTRIBUTION             INCLUDING G=0 CONTRIBUTION    
         -----------------------------------   -----------------------------------
  ATOM    ISO_SHIFT        SPAN        SKEW     ISO_SHIFT        SPAN        SKEW 
 ---------------------------------------------------------------------------------
  (absolute, valence only)                                                                  
     1    -188.4074     16.6684      0.3326     -192.6210     16.6953      0.3135
     2    -188.4074     16.6684      0.3326     -192.6210     16.6953      0.3135
     3    -188.4074     16.6684      0.3326     -192.6210     16.6953      0.3135
     4    -188.4074     16.6684      0.3326     -192.6210     16.6953      0.3135
     5    6255.6021    444.5321      0.6627     6251.3885    444.7129      0.6628
     6    6255.6021    444.5321      0.6627     6251.3885    444.7129      0.6628
     7    6255.6021    444.5321      0.6627     6251.3885    444.7129      0.6628
     8    6255.6021    444.5321      0.6627     6251.3885    444.7129      0.6628
     9     429.5146    417.3904      0.9583      425.3010    417.5907      0.9583
    10     429.5146    417.3904      0.9583      425.3010    417.5907      0.9583
    11     429.5146    417.3904      0.9583      425.3010    417.5907      0.9583
    12     429.5146    417.3904      0.9583      425.3010    417.5907      0.9583
    13     453.6661    470.7436      0.7879      449.4525    470.5440      0.7887
    14     453.6661    470.7436      0.7879      449.4525    470.5440      0.7887
    15     453.6661    470.7436      0.7879      449.4525    470.5440      0.7887
    16     453.6661    470.7436      0.7879      449.4525    470.5440      0.7887
    17      85.6213    133.0435      0.1537       81.4077    132.8512      0.1554
    18      85.6213    133.0435      0.1537       81.4077    132.8512      0.1554
    19      85.6213    133.0435      0.1537       81.4077    132.8512      0.1554
    20      85.6213    133.0435      0.1537       81.4077    132.8512      0.1554
    21     114.8526    171.9359     -0.0516      110.6390    171.7490     -0.0506
    22     114.8526    171.9359     -0.0516      110.6390    171.7490     -0.0506
    23     114.8526    171.9359     -0.0516      110.6390    171.7490     -0.0506
    24     114.8526    171.9359     -0.0516      110.6390    171.7490     -0.0506
 ---------------------------------------------------------------------------------
  (absolute, valence and core)                                                                  
     1    -565.6885     16.6684      0.3326     -571.7457     16.6953      0.3135
     2    -565.6885     16.6684      0.3326     -571.7457     16.6953      0.3135
     3    -565.6885     16.6684      0.3326     -571.7457     16.6953      0.3135
     4    -565.6885     16.6684      0.3326     -571.7457     16.6953      0.3135
     5   -2957.1225    444.5321      0.6627    -2963.1798    444.7129      0.6628
     6   -2957.1225    444.5321      0.6627    -2963.1798    444.7129      0.6628
     7   -2957.1225    444.5321      0.6627    -2963.1798    444.7129      0.6628
     8   -2957.1225    444.5321      0.6627    -2963.1798    444.7129      0.6628
     9     158.4379    417.3904      0.9583      152.3807    417.5907      0.9583
    10     158.4379    417.3904      0.9583      152.3807    417.5907      0.9583
    11     158.4379    417.3904      0.9583      152.3807    417.5907      0.9583
    12     158.4379    417.3904      0.9583      152.3807    417.5907      0.9583
    13     182.5895    470.7436      0.7879      176.5322    470.5440      0.7887
    14     182.5895    470.7436      0.7879      176.5322    470.5440      0.7887
    15     182.5895    470.7436      0.7879      176.5322    470.5440      0.7887
    16     182.5895    470.7436      0.7879      176.5322    470.5440      0.7887
    17    -220.7980    133.0435      0.1537     -226.8553    132.8512      0.1554
    18    -220.7980    133.0435      0.1537     -226.8553    132.8512      0.1554
    19    -220.7980    133.0435      0.1537     -226.8553    132.8512      0.1554
    20    -220.7980    133.0435      0.1537     -226.8553    132.8512      0.1554
    21    -191.5668    171.9359     -0.0516     -197.6241    171.7490     -0.0506
    22    -191.5668    171.9359     -0.0516     -197.6241    171.7490     -0.0506
    23    -191.5668    171.9359     -0.0516     -197.6241    171.7490     -0.0506
    24    -191.5668    171.9359     -0.0516     -197.6241    171.7490     -0.0506
 ---------------------------------------------------------------------------------
  IF SPAN.EQ.0, THEN SKEW IS ILL-DEFINED                                          
 ---------------------------------------------------------------------------------


 writing wavefunctions
     LOOP+:  cpu time37907.6880: real time37910.8811
    4ORBIT:  cpu time    0.0000: real time    0.0000

 total amount of memory used by VASP MPI-rank0   549788. kBytes
=======================================================================

   base      :      30000. kBytes
   nonlr-proj:       8361. kBytes
   fftplans  :      20492. kBytes
   grid      :      46129. kBytes
   one-center:        778. kBytes
   wavefun   :     444028. kBytes

  
  
 General timing and accounting informations for this job:
 ========================================================
  
                  Total CPU time used (sec):    37917.523
                            User time (sec):    37883.575
                          System time (sec):       33.949
                         Elapsed time (sec):    37920.912
  
                   Maximum memory used (kb):     2362060.
                   Average memory used (kb):          N/A
  
                          Minor page faults:       210861
                          Major page faults:            2
                 Voluntary context switches:         1470
