unknown system                          
           1
     8.187946    0.000000   -0.016265
     0.000000    5.481074    0.000000
    -1.606630    0.000000    7.377923
   Na   Ta   O    F 
     4     4     8     8
Direct configuration=     1
   0.37077341  0.78981854  0.10765459
   0.62922656  0.21018146  0.89234541
   0.62922656  0.28981854  0.39234541
   0.37077341  0.71018146  0.60765459
   0.15885168  0.25992625  0.29681116
   0.84114835  0.74007378  0.70318887
   0.84114835  0.75992622  0.20318884
   0.15885168  0.24007375  0.79681113
   0.18727681  0.16705812  0.05305399
   0.81272316  0.83294191  0.94694599
   0.81272316  0.66705809  0.44694602
   0.18727681  0.33294188  0.55305401
   0.02856745  0.54678126  0.21400565
   0.97143254  0.45321874  0.78599433
   0.97143254  0.04678126  0.28599433
   0.02856745  0.95321874  0.71400567
   0.37044704  0.46874981  0.31342206
   0.62955296  0.53125019  0.68657797
   0.62955296  0.96874981  0.18657794
   0.37044704  0.03125019  0.81342203
   0.32402532  0.98433885  0.37487656
   0.67597468  0.01566115  0.62512341
   0.67597468  0.48433885  0.12512344
   0.32402532  0.51566115  0.87487659
