  24  24   0   0
  0.1345672E+02  0.8099730E-09  0.5439130E-09  0.7498150E-09  0.5000000E-15
   1.0000000000000000E-004
  CAR 
 NbOF2.5(OH)0.5_W1_VASP_PBE_DFT-D3_APO   
     15.60974851    -70.13736908  301      1.39001818      1.00000000
    -70.137  0.0000E+00  0.0000E+00
    -69.852  0.0000E+00  0.0000E+00
    -69.566  0.0000E+00  0.0000E+00
    -69.280  0.0000E+00  0.0000E+00
    -68.994  0.0000E+00  0.0000E+00
    -68.708  0.0000E+00  0.0000E+00
    -68.422  0.0000E+00  0.0000E+00
    -68.137  0.0000E+00  0.0000E+00
    -67.851  0.0000E+00  0.0000E+00
    -67.565  0.0000E+00  0.0000E+00
    -67.279  0.0000E+00  0.0000E+00
    -66.993  0.0000E+00  0.0000E+00
    -66.707  0.4449E-12  0.1272E-12
    -66.422  0.1319E-03  0.3771E-04
    -66.136  0.2578E-01  0.7407E-02
    -65.850  0.2075E-02  0.8000E-02
    -65.564  0.5705E-09  0.8000E-02
    -65.278  0.0000E+00  0.8000E-02
    -64.993  0.0000E+00  0.8000E-02
    -64.707  0.0000E+00  0.8000E-02
    -64.421  0.0000E+00  0.8000E-02
    -64.135  0.0000E+00  0.8000E-02
    -63.849  0.0000E+00  0.8000E-02
    -63.563  0.0000E+00  0.8000E-02
    -63.278  0.0000E+00  0.8000E-02
    -62.992  0.0000E+00  0.8000E-02
    -62.706  0.0000E+00  0.8000E-02
    -62.420  0.0000E+00  0.8000E-02
    -62.134  0.0000E+00  0.8000E-02
    -61.848  0.0000E+00  0.8000E-02
    -61.563  0.0000E+00  0.8000E-02
    -61.277  0.0000E+00  0.8000E-02
    -60.991  0.0000E+00  0.8000E-02
    -60.705  0.0000E+00  0.8000E-02
    -60.419  0.0000E+00  0.8000E-02
    -60.134  0.0000E+00  0.8000E-02
    -59.848  0.0000E+00  0.8000E-02
    -59.562  0.0000E+00  0.8000E-02
    -59.276  0.0000E+00  0.8000E-02
    -58.990  0.0000E+00  0.8000E-02
    -58.704  0.0000E+00  0.8000E-02
    -58.419  0.0000E+00  0.8000E-02
    -58.133  0.0000E+00  0.8000E-02
    -57.847  0.0000E+00  0.8000E-02
    -57.561  0.0000E+00  0.8000E-02
    -57.275  0.0000E+00  0.8000E-02
    -56.989  0.0000E+00  0.8000E-02
    -56.704  0.0000E+00  0.8000E-02
    -56.418  0.0000E+00  0.8000E-02
    -56.132  0.0000E+00  0.8000E-02
    -55.846  0.0000E+00  0.8000E-02
    -55.560  0.0000E+00  0.8000E-02
    -55.275  0.0000E+00  0.8000E-02
    -54.989  0.0000E+00  0.8000E-02
    -54.703  0.0000E+00  0.8000E-02
    -54.417  0.0000E+00  0.8000E-02
    -54.131  0.0000E+00  0.8000E-02
    -53.845  0.0000E+00  0.8000E-02
    -53.560  0.0000E+00  0.8000E-02
    -53.274  0.0000E+00  0.8000E-02
    -52.988  0.0000E+00  0.8000E-02
    -52.702  0.0000E+00  0.8000E-02
    -52.416  0.0000E+00  0.8000E-02
    -52.130  0.0000E+00  0.8000E-02
    -51.845  0.0000E+00  0.8000E-02
    -51.559  0.0000E+00  0.8000E-02
    -51.273  0.0000E+00  0.8000E-02
    -50.987  0.0000E+00  0.8000E-02
    -50.701  0.0000E+00  0.8000E-02
    -50.416  0.0000E+00  0.8000E-02
    -50.130  0.0000E+00  0.8000E-02
    -49.844  0.0000E+00  0.8000E-02
    -49.558  0.0000E+00  0.8000E-02
    -49.272  0.0000E+00  0.8000E-02
    -48.986  0.0000E+00  0.8000E-02
    -48.701  0.0000E+00  0.8000E-02
    -48.415  0.0000E+00  0.8000E-02
    -48.129  0.0000E+00  0.8000E-02
    -47.843  0.1399E-12  0.8000E-02
    -47.557  0.7980E-04  0.8023E-02
    -47.271  0.2509E-01  0.1519E-01
    -46.986  0.2818E-02  0.1600E-01
    -46.700  0.1454E-08  0.1600E-01
    -46.414  0.0000E+00  0.1600E-01
    -46.128  0.0000E+00  0.1600E-01
    -45.842  0.0000E+00  0.1600E-01
    -45.557  0.0000E+00  0.1600E-01
    -45.271  0.0000E+00  0.1600E-01
    -44.985  0.0000E+00  0.1600E-01
    -44.699  0.0000E+00  0.1600E-01
    -44.413  0.0000E+00  0.1600E-01
    -44.127  0.0000E+00  0.1600E-01
    -43.842  0.0000E+00  0.1600E-01
    -43.556  0.0000E+00  0.1600E-01
    -43.270  0.0000E+00  0.1600E-01
    -42.984  0.0000E+00  0.1600E-01
    -42.698  0.0000E+00  0.1600E-01
    -42.412  0.0000E+00  0.1600E-01
    -42.127  0.0000E+00  0.1600E-01
    -41.841  0.0000E+00  0.1600E-01
    -41.555  0.0000E+00  0.1600E-01
    -41.269  0.0000E+00  0.1600E-01
    -40.983  0.0000E+00  0.1600E-01
    -40.698  0.0000E+00  0.1600E-01
    -40.412  0.0000E+00  0.1600E-01
    -40.126  0.0000E+00  0.1600E-01
    -39.840  0.0000E+00  0.1600E-01
    -39.554  0.0000E+00  0.1600E-01
    -39.268  0.0000E+00  0.1600E-01
    -38.983  0.0000E+00  0.1600E-01
    -38.697  0.0000E+00  0.1600E-01
    -38.411  0.0000E+00  0.1600E-01
    -38.125  0.0000E+00  0.1600E-01
    -37.839  0.0000E+00  0.1600E-01
    -37.553  0.0000E+00  0.1600E-01
    -37.268  0.0000E+00  0.1600E-01
    -36.982  0.0000E+00  0.1600E-01
    -36.696  0.0000E+00  0.1600E-01
    -36.410  0.0000E+00  0.1600E-01
    -36.124  0.0000E+00  0.1600E-01
    -35.839  0.0000E+00  0.1600E-01
    -35.553  0.0000E+00  0.1600E-01
    -35.267  0.0000E+00  0.1600E-01
    -34.981  0.0000E+00  0.1600E-01
    -34.695  0.0000E+00  0.1600E-01
    -34.409  0.0000E+00  0.1600E-01
    -34.124  0.0000E+00  0.1600E-01
    -33.838  0.0000E+00  0.1600E-01
    -33.552  0.0000E+00  0.1600E-01
    -33.266  0.1850E-10  0.1600E-01
    -32.980  0.5976E-03  0.1617E-01
    -32.694  0.6123E-01  0.3367E-01
    -32.409  0.2213E-01  0.4000E-01
    -32.123  0.1182E-04  0.4000E-01
    -31.837  0.8102E-14  0.4000E-01
    -31.551  0.0000E+00  0.4000E-01
    -31.265  0.0000E+00  0.4000E-01
    -30.980  0.0000E+00  0.4000E-01
    -30.694  0.0000E+00  0.4000E-01
    -30.408  0.0000E+00  0.4000E-01
    -30.122  0.0000E+00  0.4000E-01
    -29.836  0.0000E+00  0.4000E-01
    -29.550  0.0000E+00  0.4000E-01
    -29.265  0.0000E+00  0.4000E-01
    -28.979  0.0000E+00  0.4000E-01
    -28.693  0.0000E+00  0.4000E-01
    -28.407  0.0000E+00  0.4000E-01
    -28.121  0.0000E+00  0.4000E-01
    -27.835  0.0000E+00  0.4000E-01
    -27.550  0.0000E+00  0.4000E-01
    -27.264  0.0000E+00  0.4000E-01
    -26.978  0.0000E+00  0.4000E-01
    -26.692  0.0000E+00  0.4000E-01
    -26.406  0.0000E+00  0.4000E-01
    -26.121  0.0000E+00  0.4000E-01
    -25.835  0.0000E+00  0.4000E-01
    -25.549  0.0000E+00  0.4000E-01
    -25.263  0.0000E+00  0.4000E-01
    -24.977  0.0000E+00  0.4000E-01
    -24.691  0.0000E+00  0.4000E-01
    -24.406  0.0000E+00  0.4000E-01
    -24.120  0.0000E+00  0.4000E-01
    -23.834  0.0000E+00  0.4000E-01
    -23.548  0.0000E+00  0.4000E-01
    -23.262  0.0000E+00  0.4000E-01
    -22.976  0.0000E+00  0.4000E-01
    -22.691  0.0000E+00  0.4000E-01
    -22.405  0.0000E+00  0.4000E-01
    -22.119  0.0000E+00  0.4000E-01
    -21.833  0.0000E+00  0.4000E-01
    -21.547  0.0000E+00  0.4000E-01
    -21.262  0.0000E+00  0.4000E-01
    -20.976  0.6662E-16  0.4000E-01
    -20.690  0.1007E-05  0.4000E-01
    -20.404  0.1264E-01  0.4361E-01
    -20.118  0.3894E-01  0.5474E-01
    -19.832  0.4392E-02  0.5600E-01
    -19.547  0.1423E-04  0.5600E-01
    -19.261  0.3407E-01  0.6574E-01
    -18.975  0.4938E-01  0.7985E-01
    -18.689  0.5109E-03  0.8000E-01
    -18.403  0.3971E-10  0.8000E-01
    -18.117  0.0000E+00  0.8000E-01
    -17.832  0.0000E+00  0.8000E-01
    -17.546  0.0000E+00  0.8000E-01
    -17.260  0.0000E+00  0.8000E-01
    -16.974  0.0000E+00  0.8000E-01
    -16.688  0.0000E+00  0.8000E-01
    -16.403  0.0000E+00  0.8000E-01
    -16.117  0.4737E-12  0.8000E-01
    -15.831  0.2876E-04  0.8001E-01
    -15.545  0.4879E-02  0.8140E-01
    -15.259  0.1450E-01  0.8555E-01
    -14.973  0.2222E-01  0.9190E-01
    -14.688  0.2961E-02  0.9274E-01
    -14.402  0.4655E-02  0.9407E-01
    -14.116  0.6636E-02  0.9597E-01
    -13.830  0.9884E-04  0.9600E-01
    -13.544  0.2211E-11  0.9600E-01
    -13.258  0.0000E+00  0.9600E-01
    -12.973  0.0000E+00  0.9600E-01
    -12.687  0.0000E+00  0.9600E-01
    -12.401  0.0000E+00  0.9600E-01
    -12.115  0.0000E+00  0.9600E-01
    -11.829  0.0000E+00  0.9600E-01
    -11.544  0.0000E+00  0.9600E-01
    -11.258  0.0000E+00  0.9600E-01
    -10.972  0.0000E+00  0.9600E-01
    -10.686  0.0000E+00  0.9600E-01
    -10.400  0.0000E+00  0.9600E-01
    -10.114  0.0000E+00  0.9600E-01
     -9.829  0.0000E+00  0.9600E-01
     -9.543  0.0000E+00  0.9600E-01
     -9.257  0.0000E+00  0.9600E-01
     -8.971  0.0000E+00  0.9600E-01
     -8.685  0.0000E+00  0.9600E-01
     -8.399  0.0000E+00  0.9600E-01
     -8.114  0.0000E+00  0.9600E-01
     -7.828  0.0000E+00  0.9600E-01
     -7.542  0.0000E+00  0.9600E-01
     -7.256  0.0000E+00  0.9600E-01
     -6.970  0.0000E+00  0.9600E-01
     -6.685  0.0000E+00  0.9600E-01
     -6.399  0.0000E+00  0.9600E-01
     -6.113  0.0000E+00  0.9600E-01
     -5.827  0.0000E+00  0.9600E-01
     -5.541  0.0000E+00  0.9600E-01
     -5.255  0.0000E+00  0.9600E-01
     -4.970  0.0000E+00  0.9600E-01
     -4.684  0.0000E+00  0.9600E-01
     -4.398  0.1052E-17  0.9600E-01
     -4.112  0.8148E-07  0.9600E-01
     -3.826  0.4839E-02  0.9738E-01
     -3.540  0.2870E-01  0.1056E+00
     -3.255  0.3342E-02  0.1065E+00
     -2.969  0.1778E-01  0.1116E+00
     -2.683  0.2140E-01  0.1177E+00
     -2.397  0.2615E-01  0.1252E+00
     -2.111  0.2215E-01  0.1315E+00
     -1.825  0.2026E-01  0.1373E+00
     -1.540  0.1185E-01  0.1407E+00
     -1.254  0.3069E-01  0.1495E+00
     -0.968  0.3095E-01  0.1583E+00
     -0.682  0.2788E-01  0.1663E+00
     -0.396  0.1373E-01  0.1702E+00
     -0.111  0.1092E-01  0.1734E+00
      0.175  0.2069E-01  0.1793E+00
      0.461  0.1858E-01  0.1846E+00
      0.747  0.1260E-01  0.1882E+00
      1.033  0.1326E-01  0.1920E+00
      1.319  0.1110E-03  0.1920E+00
      1.604  0.1339E-11  0.1920E+00
      1.890  0.0000E+00  0.1920E+00
      2.176  0.0000E+00  0.1920E+00
      2.462  0.0000E+00  0.1920E+00
      2.748  0.0000E+00  0.1920E+00
      3.034  0.0000E+00  0.1920E+00
      3.319  0.0000E+00  0.1920E+00
      3.605  0.0000E+00  0.1920E+00
      3.891  0.0000E+00  0.1920E+00
      4.177  0.0000E+00  0.1920E+00
      4.463  0.1114E-09  0.1920E+00
      4.748  0.2153E-03  0.1921E+00
      5.034  0.7942E-02  0.1943E+00
      5.320  0.8308E-02  0.1967E+00
      5.606  0.7331E-02  0.1988E+00
      5.892  0.3894E-02  0.1999E+00
      6.178  0.1163E-01  0.2032E+00
      6.463  0.1176E-01  0.2066E+00
      6.749  0.7528E-02  0.2088E+00
      7.035  0.8937E-02  0.2113E+00
      7.321  0.1042E-01  0.2143E+00
      7.607  0.6326E-02  0.2161E+00
      7.893  0.1803E-02  0.2166E+00
      8.178  0.1323E-02  0.2170E+00
      8.464  0.1526E-02  0.2174E+00
      8.750  0.2973E-02  0.2183E+00
      9.036  0.2874E-02  0.2191E+00
      9.322  0.5311E-02  0.2206E+00
      9.607  0.8436E-02  0.2230E+00
      9.893  0.6981E-02  0.2250E+00
     10.179  0.9050E-02  0.2276E+00
     10.465  0.8180E-02  0.2299E+00
     10.751  0.8528E-02  0.2324E+00
     11.037  0.8208E-02  0.2347E+00
     11.322  0.1008E-01  0.2376E+00
     11.608  0.7499E-02  0.2398E+00
     11.894  0.8654E-03  0.2400E+00
     12.180  0.1493E-05  0.2400E+00
     12.466  0.5437E-14  0.2400E+00
     12.752  0.0000E+00  0.2400E+00
     13.037  0.0000E+00  0.2400E+00
     13.323  0.0000E+00  0.2400E+00
     13.609  0.0000E+00  0.2400E+00
     13.895  0.0000E+00  0.2400E+00
     14.181  0.0000E+00  0.2400E+00
     14.466  0.0000E+00  0.2400E+00
     14.752  0.0000E+00  0.2400E+00
     15.038  0.0000E+00  0.2400E+00
     15.324  0.0000E+00  0.2400E+00
     15.610  0.0000E+00  0.2400E+00
