       N       E                     dE             d eps       ncg     rms          rms(c)
DAV:   1     0.346397240330E+04    0.34640E+04   -0.10338E+05  5800   0.182E+03
DAV:   2     0.362921130488E+03   -0.31011E+04   -0.28544E+04  5800   0.680E+02
DAV:   3    -0.210314938869E+03   -0.57324E+03   -0.56120E+03  9032   0.325E+02
DAV:   4    -0.241139254166E+03   -0.30824E+02   -0.30691E+02  9240   0.920E+01
DAV:   5    -0.241634268698E+03   -0.49501E+00   -0.49435E+00  9104   0.128E+01    0.114E+02
DAV:   6    -0.198872344118E+03    0.42762E+02   -0.16748E+02  9120   0.597E+01    0.196E+02
DAV:   7    -0.202499750044E+03   -0.36274E+01   -0.11687E+01  8760   0.170E+01    0.175E+02
DAV:   8    -0.205338541296E+03   -0.28388E+01   -0.22298E+01  8776   0.240E+01    0.328E+02
DAV:   9    -0.196415186871E+03    0.89234E+01   -0.24300E+01  9288   0.237E+01    0.284E+02
DAV:  10    -0.196807644460E+03   -0.39246E+00   -0.44467E+00  9008   0.102E+01    0.215E+02
DAV:  11    -0.196628395270E+03    0.17925E+00   -0.30937E-01  9352   0.308E+00    0.151E+02
DAV:  12    -0.196504150352E+03    0.12424E+00   -0.25086E-01  8552   0.301E+00    0.238E+01
DAV:  13    -0.196484804338E+03    0.19346E-01   -0.77338E-02  8776   0.135E+00    0.519E+00
DAV:  14    -0.196483988008E+03    0.81633E-03   -0.15795E-02  8680   0.648E-01    0.204E-01
DAV:  15    -0.196484210543E+03   -0.22254E-03   -0.30453E-03  8944   0.350E-01    0.108E+00
DAV:  16    -0.196484291488E+03   -0.80945E-04   -0.85323E-04  9024   0.191E-01    0.949E-01
DAV:  17    -0.196484324177E+03   -0.32690E-04   -0.13999E-04  9640   0.851E-02    0.725E-02
DAV:  18    -0.196484342595E+03   -0.18418E-04   -0.51836E-05  8536   0.336E-02    0.550E-02
DAV:  19    -0.196484346824E+03   -0.42288E-05   -0.15877E-05  8696   0.216E-02    0.422E-02
DAV:  20    -0.196484346929E+03   -0.10504E-06   -0.24697E-06  8848   0.110E-02    0.372E-03
DAV:  21    -0.196484347206E+03   -0.27711E-06   -0.13662E-06  8592   0.518E-03    0.837E-03
DAV:  22    -0.196484347202E+03    0.42419E-08   -0.13897E-07  7720   0.185E-03    0.526E-03
DAV:  23    -0.196484347226E+03   -0.24007E-07   -0.27102E-08  5272   0.931E-04    0.176E-03
DAV:  24    -0.196484347219E+03    0.63665E-08   -0.52251E-09  4032   0.486E-04
   1 F= -.19648435E+03 E0= -.19648435E+03  d E =-.196484E+03
       N       E                     dE             d eps       ncg     rms          rms(c)
DAV:   1    -0.195511251482E+03    0.97310E+00   -0.23907E+02  5952   0.697E+01    0.576E+00
DAV:   2    -0.196575461938E+03   -0.10642E+01   -0.14067E+01  8496   0.186E+01    0.492E+00
DAV:   3    -0.196497642881E+03    0.77819E-01   -0.48440E-01  9088   0.511E+00    0.365E+00
DAV:   4    -0.196456569047E+03    0.41074E-01   -0.34534E-02  8928   0.946E-01    0.241E+00
DAV:   5    -0.196392023286E+03    0.64546E-01   -0.11717E-01  8352   0.183E+00    0.985E-01
DAV:   6    -0.196391808369E+03    0.21492E-03   -0.36405E-02  9016   0.924E-01    0.393E-01
DAV:   7    -0.196391773480E+03    0.34889E-04   -0.21745E-03  9200   0.284E-01    0.822E-01
DAV:   8    -0.196391697523E+03    0.75957E-04   -0.13780E-03  9304   0.174E-01    0.640E-01
DAV:   9    -0.196391722905E+03   -0.25382E-04   -0.38246E-04  8616   0.112E-01    0.127E-01
DAV:  10    -0.196391703908E+03    0.18997E-04   -0.21771E-04  8672   0.810E-02    0.168E-01
DAV:  11    -0.196391697742E+03    0.61661E-05   -0.33051E-05  9136   0.281E-02    0.101E-01
DAV:  12    -0.196391697549E+03    0.19330E-06   -0.16138E-05  9016   0.190E-02    0.399E-02
DAV:  13    -0.196391698736E+03   -0.11870E-05   -0.41888E-06  9000   0.108E-02    0.178E-02
DAV:  14    -0.196391699046E+03   -0.30976E-06   -0.62441E-07  9040   0.424E-03    0.278E-02
DAV:  15    -0.196391698971E+03    0.75215E-07   -0.77275E-07  8248   0.429E-03    0.820E-03
DAV:  16    -0.196391698977E+03   -0.68394E-08   -0.15702E-07  7520   0.189E-03    0.956E-04
DAV:  17    -0.196391698944E+03    0.33346E-07   -0.23694E-08  4816   0.107E-03    0.380E-04
DAV:  18    -0.196391698939E+03    0.51587E-08   -0.10691E-08  3984   0.654E-04
   2 F= -.19639170E+03 E0= -.19639170E+03  d E =0.926483E-01
       N       E                     dE             d eps       ncg     rms          rms(c)
DAV:   1    -0.196460877309E+03   -0.69178E-01   -0.72246E+01  5952   0.379E+01    0.223E+00
DAV:   2    -0.196720606138E+03   -0.25973E+00   -0.36165E+00  8464   0.102E+01    0.176E+00
DAV:   3    -0.196697295815E+03    0.23310E-01   -0.87822E-02  9000   0.206E+00    0.109E+00
DAV:   4    -0.196677496624E+03    0.19799E-01   -0.18524E-02  8768   0.747E-01    0.547E-01
DAV:   5    -0.196668066657E+03    0.94300E-02   -0.22035E-02  8408   0.796E-01    0.141E-01
DAV:   6    -0.196668404052E+03   -0.33740E-03   -0.72194E-03  9032   0.412E-01    0.167E-01
DAV:   7    -0.196668378737E+03    0.25316E-04   -0.26956E-04  9024   0.105E-01    0.276E-01
DAV:   8    -0.196668375664E+03    0.30722E-05   -0.22457E-05  9144   0.269E-02    0.264E-01
DAV:   9    -0.196668400823E+03   -0.25159E-04   -0.17107E-04  8328   0.831E-02    0.200E-01
DAV:  10    -0.196668386241E+03    0.14582E-04   -0.94642E-05  9336   0.559E-02    0.182E-01
DAV:  11    -0.196668386980E+03   -0.73902E-06   -0.11514E-05  9144   0.154E-02    0.124E-01
DAV:  12    -0.196668387071E+03   -0.90899E-07   -0.56018E-07  8624   0.439E-03    0.104E-01
DAV:  13    -0.196668389175E+03   -0.21037E-05   -0.64864E-06  8144   0.157E-02    0.515E-02
DAV:  14    -0.196668388386E+03    0.78848E-06   -0.11574E-06  8824   0.736E-03    0.457E-02
DAV:  15    -0.196668387930E+03    0.45571E-06   -0.11375E-06  7576   0.515E-03    0.287E-02
DAV:  16    -0.196668387874E+03    0.56414E-07   -0.15480E-07  7824   0.198E-03    0.248E-02
DAV:  17    -0.196668387738E+03    0.13603E-06   -0.33335E-07  8016   0.330E-03    0.893E-03
DAV:  18    -0.196668387745E+03   -0.66830E-08   -0.49759E-08  6128   0.113E-03
   3 F= -.19666839E+03 E0= -.19666839E+03  d E =-.184041E+00
       N       E                     dE             d eps       ncg     rms          rms(c)
DAV:   1    -0.196640046335E+03    0.28341E-01   -0.33078E+01  5952   0.299E+01    0.233E+00
DAV:   2    -0.196762153011E+03   -0.12211E+00   -0.13033E+00  8608   0.597E+00    0.136E+00
DAV:   3    -0.196755767699E+03    0.63853E-02   -0.26698E-02  8936   0.138E+00    0.340E-01
DAV:   4    -0.196754560890E+03    0.12068E-02   -0.44499E-03  9128   0.366E-01    0.568E-01
DAV:   5    -0.196754636819E+03   -0.75930E-04   -0.48815E-04  9112   0.116E-01    0.275E-01
DAV:   6    -0.196754226421E+03    0.41040E-03   -0.14886E-03  8696   0.248E-01    0.935E-02
DAV:   7    -0.196754241317E+03   -0.14896E-04   -0.24902E-04  8272   0.670E-02    0.633E-02
DAV:   8    -0.196754242029E+03   -0.71199E-06   -0.21947E-05  9088   0.214E-02    0.647E-02
DAV:   9    -0.196754243613E+03   -0.15836E-05   -0.64419E-06  9584   0.150E-02    0.366E-02
DAV:  10    -0.196754242542E+03    0.10707E-05   -0.39867E-06  8336   0.107E-02    0.509E-02
DAV:  11    -0.196754241854E+03    0.68848E-06   -0.27054E-06  9184   0.863E-03    0.261E-02
DAV:  12    -0.196754241899E+03   -0.44765E-07   -0.61258E-07  7920   0.302E-03    0.934E-03
DAV:  13    -0.196754241890E+03    0.84074E-08   -0.42244E-08  5672   0.131E-03
   4 F= -.19675424E+03 E0= -.19675424E+03  d E =-.858541E-01
       N       E                     dE             d eps       ncg     rms          rms(c)
DAV:   1    -0.196657197624E+03    0.97044E-01   -0.36833E+01  5952   0.316E+01    0.257E+00
DAV:   2    -0.196794087925E+03   -0.13689E+00   -0.14609E+00  8592   0.629E+00    0.146E+00
DAV:   3    -0.196786814466E+03    0.72735E-02   -0.30334E-02  8840   0.147E+00    0.349E-01
DAV:   4    -0.196785578073E+03    0.12364E-02   -0.50313E-03  9104   0.395E-01    0.607E-01
DAV:   5    -0.196785661777E+03   -0.83704E-04   -0.51395E-04  9040   0.119E-01    0.298E-01
DAV:   6    -0.196785209744E+03    0.45203E-03   -0.16459E-03  8776   0.263E-01    0.113E-01
DAV:   7    -0.196785225632E+03   -0.15888E-04   -0.27272E-04  8328   0.707E-02    0.779E-02
DAV:   8    -0.196785226398E+03   -0.76582E-06   -0.22610E-05  9088   0.219E-02    0.795E-02
DAV:   9    -0.196785228039E+03   -0.16414E-05   -0.55520E-06  9416   0.143E-02    0.415E-02
DAV:  10    -0.196785226882E+03    0.11573E-05   -0.40175E-06  8272   0.114E-02    0.698E-02
DAV:  11    -0.196785226279E+03    0.60253E-06   -0.28841E-06  9512   0.880E-03    0.354E-02
DAV:  12    -0.196785226321E+03   -0.41298E-07   -0.42558E-07  7000   0.254E-03    0.199E-02
DAV:  13    -0.196785226333E+03   -0.12304E-07   -0.98134E-08  7032   0.165E-03    0.719E-03
DAV:  14    -0.196785226365E+03   -0.31843E-07   -0.26193E-08  5128   0.152E-03    0.244E-03
DAV:  15    -0.196785226372E+03   -0.67485E-08   -0.61824E-08  6016   0.113E-03
   5 F= -.19678523E+03 E0= -.19678523E+03  d E =-.116839E+00
       N       E                     dE             d eps       ncg     rms          rms(c)
DAV:   1    -0.196765931639E+03    0.19295E-01   -0.12593E+01  6000   0.182E+01    0.128E+00
DAV:   2    -0.196806797111E+03   -0.40865E-01   -0.43514E-01  8608   0.356E+00    0.532E-01
DAV:   3    -0.196805309468E+03    0.14876E-02   -0.79262E-03  8816   0.740E-01    0.188E-01
DAV:   4    -0.196804910376E+03    0.39909E-03   -0.13998E-03  9112   0.248E-01    0.198E-01
DAV:   5    -0.196804900009E+03    0.10367E-04   -0.19697E-04  8984   0.697E-02    0.156E-01
DAV:   6    -0.196804871361E+03    0.28648E-04   -0.66601E-05  9120   0.567E-02    0.385E-02
DAV:   7    -0.196804865765E+03    0.55961E-05   -0.31811E-05  8016   0.313E-02    0.210E-02
DAV:   8    -0.196804866745E+03   -0.98021E-06   -0.11648E-05  8672   0.156E-02    0.731E-03
DAV:   9    -0.196804866820E+03   -0.75284E-07   -0.57727E-07  9160   0.441E-03    0.902E-03
DAV:  10    -0.196804866823E+03   -0.26048E-08   -0.22103E-07  7904   0.298E-03    0.247E-03
DAV:  11    -0.196804866770E+03    0.52569E-07   -0.10746E-07  7488   0.222E-03    0.271E-03
DAV:  12    -0.196804866770E+03    0.21828E-09   -0.43851E-08  5576   0.107E-03
   6 F= -.19680487E+03 E0= -.19680487E+03  d E =-.196404E-01
       N       E                     dE             d eps       ncg     rms          rms(c)
DAV:   1    -0.196798171209E+03    0.66956E-02   -0.31999E+00  6008   0.919E+00    0.654E-01
DAV:   2    -0.196808033328E+03   -0.98621E-02   -0.10516E-01  8608   0.176E+00    0.268E-01
DAV:   3    -0.196807665578E+03    0.36775E-03   -0.19375E-03  8816   0.378E-01    0.894E-02
DAV:   4    -0.196807570799E+03    0.94779E-04   -0.35784E-04  9120   0.130E-01    0.982E-02
DAV:   5    -0.196807567545E+03    0.32542E-05   -0.48940E-05  9000   0.362E-02    0.750E-02
DAV:   6    -0.196807559760E+03    0.77851E-05   -0.17256E-05  9080   0.281E-02    0.178E-02
DAV:   7    -0.196807558356E+03    0.14038E-05   -0.80285E-06  8384   0.156E-02    0.102E-02
DAV:   8    -0.196807558566E+03   -0.20963E-06   -0.25910E-06  8720   0.724E-03    0.445E-03
DAV:   9    -0.196807558597E+03   -0.30846E-07   -0.12739E-07  7296   0.209E-03    0.428E-03
DAV:  10    -0.196807558579E+03    0.18004E-07   -0.63832E-08  6584   0.160E-03    0.137E-03
DAV:  11    -0.196807558565E+03    0.13293E-07   -0.19638E-08  4256   0.106E-03    0.151E-03
DAV:  12    -0.196807558566E+03   -0.33833E-09   -0.12593E-08  3976   0.801E-04
   7 F= -.19680756E+03 E0= -.19680756E+03  d E =-.223322E-01
       N       E                     dE             d eps       ncg     rms          rms(c)
DAV:   1    -0.196794433562E+03    0.13125E-01   -0.80813E+00  5960   0.151E+01    0.642E-01
DAV:   2    -0.196819600978E+03   -0.25167E-01   -0.28278E-01  8544   0.293E+00    0.387E-01
DAV:   3    -0.196818590164E+03    0.10108E-02   -0.52827E-03  8672   0.609E-01    0.197E-01
DAV:   4    -0.196817831455E+03    0.75871E-03   -0.12455E-03  8608   0.230E-01    0.791E-02
DAV:   5    -0.196817697504E+03    0.13395E-03   -0.56919E-04  9032   0.147E-01    0.306E-02
DAV:   6    -0.196817695257E+03    0.22466E-05   -0.91233E-05  9064   0.515E-02    0.270E-02
DAV:   7    -0.196817693311E+03    0.19460E-05   -0.72698E-06  8624   0.224E-02    0.296E-02
DAV:   8    -0.196817692623E+03    0.68811E-06   -0.14791E-06  9600   0.918E-03    0.191E-02
DAV:   9    -0.196817691091E+03    0.15318E-05   -0.72203E-06  8048   0.140E-02    0.952E-03
DAV:  10    -0.196817691153E+03   -0.61460E-07   -0.14360E-06  9016   0.668E-03    0.285E-03
DAV:  11    -0.196817691175E+03   -0.22239E-07   -0.11172E-07  8080   0.169E-03    0.176E-03
DAV:  12    -0.196817691206E+03   -0.30741E-07   -0.87510E-08  6512   0.159E-03    0.393E-04
DAV:  13    -0.196817691197E+03    0.90840E-08   -0.11248E-08  4032   0.839E-04
   8 F= -.19681769E+03 E0= -.19681769E+03  d E =-.101326E-01
       N       E                     dE             d eps       ncg     rms          rms(c)
DAV:   1    -0.196817086948E+03    0.60426E-03   -0.32901E-01  6016   0.305E+00    0.128E-01
DAV:   2    -0.196818067729E+03   -0.98078E-03   -0.11060E-02  8528   0.590E-01    0.759E-02
DAV:   3    -0.196818027116E+03    0.40613E-04   -0.21374E-04  8728   0.123E-01    0.401E-02
DAV:   4    -0.196817995286E+03    0.31830E-04   -0.55512E-05  8304   0.472E-02    0.160E-02
DAV:   5    -0.196817990850E+03    0.44364E-05   -0.20828E-05  9200   0.269E-02    0.585E-03
DAV:   6    -0.196817990391E+03    0.45851E-06   -0.32599E-06  9184   0.964E-03    0.472E-03
DAV:   7    -0.196817990235E+03    0.15669E-06   -0.35371E-07  8512   0.452E-03    0.506E-03
DAV:   8    -0.196817990149E+03    0.85889E-07   -0.94524E-08  7832   0.214E-03    0.275E-03
DAV:   9    -0.196817990065E+03    0.83815E-07   -0.20827E-07  7328   0.227E-03    0.811E-04
DAV:  10    -0.196817990067E+03   -0.17317E-08   -0.44830E-08  5640   0.129E-03
   9 F= -.19681799E+03 E0= -.19681799E+03  d E =-.104315E-01
       N       E                     dE             d eps       ncg     rms          rms(c)
DAV:   1    -0.196811510355E+03    0.64797E-02   -0.38901E+00  6104   0.104E+01    0.532E-01
DAV:   2    -0.196824035798E+03   -0.12525E-01   -0.13136E-01  8448   0.195E+00    0.235E-01
DAV:   3    -0.196823759635E+03    0.27616E-03   -0.19647E-03  8648   0.363E-01    0.978E-02
DAV:   4    -0.196823648706E+03    0.11093E-03   -0.32398E-04  9264   0.123E-01    0.702E-02
DAV:   5    -0.196823637086E+03    0.11620E-04   -0.64295E-05  8864   0.439E-02    0.335E-02
DAV:   6    -0.196823632156E+03    0.49298E-05   -0.16219E-05  9312   0.271E-02    0.122E-02
DAV:   7    -0.196823632756E+03   -0.59971E-06   -0.48559E-06  7824   0.110E-02    0.636E-03
DAV:   8    -0.196823632911E+03   -0.15508E-06   -0.13116E-06  9224   0.756E-03    0.513E-03
DAV:   9    -0.196823632886E+03    0.24884E-07   -0.11030E-07  7440   0.237E-03    0.392E-03
DAV:  10    -0.196823632862E+03    0.23472E-07   -0.36667E-07  7072   0.315E-03    0.146E-03
DAV:  11    -0.196823632865E+03   -0.25284E-08   -0.54577E-08  5784   0.113E-03
  10 F= -.19682363E+03 E0= -.19682363E+03  d E =-.564280E-02
       N       E                     dE             d eps       ncg     rms          rms(c)
DAV:   1    -0.196814069918E+03    0.95629E-02   -0.36749E+00  6104   0.101E+01    0.521E-01
DAV:   2    -0.196825880782E+03   -0.11811E-01   -0.12383E-01  8448   0.190E+00    0.229E-01
DAV:   3    -0.196825620672E+03    0.26011E-03   -0.18679E-03  8640   0.354E-01    0.944E-02
DAV:   4    -0.196825516131E+03    0.10454E-03   -0.30636E-04  9272   0.120E-01    0.684E-02
DAV:   5    -0.196825505496E+03    0.10635E-04   -0.60512E-05  8856   0.425E-02    0.324E-02
DAV:   6    -0.196825500688E+03    0.48076E-05   -0.15703E-05  9304   0.267E-02    0.116E-02
DAV:   7    -0.196825501265E+03   -0.57675E-06   -0.47402E-06  7848   0.108E-02    0.608E-03
DAV:   8    -0.196825501412E+03   -0.14700E-06   -0.12755E-06  9208   0.737E-03    0.490E-03
DAV:   9    -0.196825501387E+03    0.25608E-07   -0.11280E-07  7312   0.238E-03    0.363E-03
DAV:  10    -0.196825501365E+03    0.21457E-07   -0.34740E-07  7128   0.304E-03    0.140E-03
DAV:  11    -0.196825501368E+03   -0.31396E-08   -0.49734E-08  5704   0.108E-03
  11 F= -.19682550E+03 E0= -.19682550E+03  d E =-.751130E-02
       N       E                     dE             d eps       ncg     rms          rms(c)
DAV:   1    -0.196820534895E+03    0.49665E-02   -0.29075E+00  6200   0.867E+00    0.343E-01
DAV:   2    -0.196829300540E+03   -0.87656E-02   -0.92353E-02  8424   0.159E+00    0.156E-01
DAV:   3    -0.196829149841E+03    0.15070E-03   -0.12464E-03  8680   0.242E-01    0.814E-02
DAV:   4    -0.196829049930E+03    0.99911E-04   -0.21469E-04  9216   0.916E-02    0.505E-02
DAV:   5    -0.196829037162E+03    0.12768E-04   -0.51874E-05  8760   0.410E-02    0.190E-02
DAV:   6    -0.196829032365E+03    0.47976E-05   -0.16071E-05  9392   0.259E-02    0.931E-03
DAV:   7    -0.196829032895E+03   -0.53064E-06   -0.59395E-06  8368   0.108E-02    0.574E-03
DAV:   8    -0.196829032918E+03   -0.22610E-07   -0.18047E-06  9056   0.758E-03    0.446E-03
DAV:   9    -0.196829032789E+03    0.12846E-06   -0.28288E-07  8160   0.391E-03    0.252E-03
DAV:  10    -0.196829032731E+03    0.58528E-07   -0.32859E-07  7144   0.269E-03    0.150E-03
DAV:  11    -0.196829032726E+03    0.54133E-08   -0.35951E-08  5056   0.881E-04
  12 F= -.19682903E+03 E0= -.19682903E+03  d E =-.353136E-02
       N       E                     dE             d eps       ncg     rms          rms(c)
DAV:   1    -0.196821657753E+03    0.73750E-02   -0.29760E+00  6200   0.877E+00    0.348E-01
DAV:   2    -0.196830643968E+03   -0.89862E-02   -0.94689E-02  8448   0.161E+00    0.158E-01
DAV:   3    -0.196830486684E+03    0.15728E-03   -0.12634E-03  8688   0.246E-01    0.824E-02
DAV:   4    -0.196830384473E+03    0.10221E-03   -0.22013E-04  9216   0.929E-02    0.510E-02
DAV:   5    -0.196830371394E+03    0.13079E-04   -0.52452E-05  8824   0.415E-02    0.193E-02
DAV:   6    -0.196830366390E+03    0.50040E-05   -0.16319E-05  9464   0.262E-02    0.925E-03
DAV:   7    -0.196830366919E+03   -0.52872E-06   -0.60347E-06  8384   0.110E-02    0.571E-03
DAV:   8    -0.196830366947E+03   -0.28314E-07   -0.17663E-06  9000   0.759E-03    0.464E-03
DAV:   9    -0.196830366817E+03    0.12998E-06   -0.27742E-07  8248   0.392E-03    0.264E-03
DAV:  10    -0.196830366762E+03    0.55214E-07   -0.31105E-07  7184   0.260E-03    0.164E-03
DAV:  11    -0.196830366756E+03    0.57880E-08   -0.31006E-08  5024   0.843E-04
  13 F= -.19683037E+03 E0= -.19683037E+03  d E =-.486539E-02
       N       E                     dE             d eps       ncg     rms          rms(c)
DAV:   1    -0.196830296620E+03    0.70142E-04   -0.27674E-02  6256   0.845E-01    0.336E-02
DAV:   2    -0.196830378510E+03   -0.81889E-04   -0.86114E-04  8448   0.151E-01    0.151E-02
DAV:   3    -0.196830377086E+03    0.14237E-05   -0.10719E-05  8704   0.213E-02    0.780E-03
DAV:   4    -0.196830376166E+03    0.91964E-06   -0.18156E-06  8344   0.787E-03    0.357E-03
DAV:   5    -0.196830376028E+03    0.13824E-06   -0.54141E-07  9208   0.441E-03    0.141E-03
DAV:   6    -0.196830376012E+03    0.16218E-07   -0.12791E-07  7744   0.197E-03    0.734E-04
DAV:   7    -0.196830376002E+03    0.97316E-08   -0.12731E-08  4224   0.946E-04
  14 F= -.19683038E+03 E0= -.19683038E+03  d E =-.487463E-02
       N       E                     dE             d eps       ncg     rms          rms(c)
DAV:   1    -0.196829054036E+03    0.13220E-02   -0.71224E-01  6024   0.449E+00    0.167E-01
DAV:   2    -0.196831316863E+03   -0.22628E-02   -0.23713E-02  8416   0.814E-01    0.930E-02
DAV:   3    -0.196831284660E+03    0.32203E-04   -0.30332E-04  8800   0.109E-01    0.480E-02
DAV:   4    -0.196831255738E+03    0.28922E-04   -0.45386E-05  7944   0.402E-02    0.222E-02
DAV:   5    -0.196831251126E+03    0.46125E-05   -0.18587E-05  8392   0.250E-02    0.813E-03
DAV:   6    -0.196831251233E+03   -0.10785E-06   -0.49639E-06  9048   0.111E-02    0.739E-03
DAV:   7    -0.196831251143E+03    0.90531E-07   -0.54399E-07  9744   0.537E-03    0.676E-03
DAV:   8    -0.196831251178E+03   -0.35456E-07   -0.30562E-07  6896   0.237E-03    0.354E-03
DAV:   9    -0.196831251015E+03    0.16330E-06   -0.16351E-07  7992   0.323E-03    0.365E-03
DAV:  10    -0.196831251028E+03   -0.12613E-07   -0.16305E-07  6992   0.185E-03    0.146E-03
DAV:  11    -0.196831251024E+03    0.31832E-08   -0.89797E-09  4216   0.540E-04
  15 F= -.19683125E+03 E0= -.19683125E+03  d E =-.875023E-03
       N       E                     dE             d eps       ncg     rms          rms(c)
DAV:   1    -0.196829920195E+03    0.13308E-02   -0.52198E-01  6024   0.384E+00    0.143E-01
DAV:   2    -0.196831575131E+03   -0.16549E-02   -0.17340E-02  8416   0.695E-01    0.797E-02
DAV:   3    -0.196831551852E+03    0.23279E-04   -0.22245E-04  8808   0.934E-02    0.411E-02
DAV:   4    -0.196831530778E+03    0.21075E-04   -0.32946E-05  7944   0.343E-02    0.190E-02
DAV:   5    -0.196831527198E+03    0.35797E-05   -0.13912E-05  8560   0.221E-02    0.686E-03
DAV:   6    -0.196831527303E+03   -0.10557E-06   -0.38219E-06  9048   0.981E-03    0.673E-03
DAV:   7    -0.196831527239E+03    0.64294E-07   -0.45554E-07  9720   0.515E-03    0.584E-03
DAV:   8    -0.196831527251E+03   -0.12365E-07   -0.19154E-07  7320   0.187E-03    0.322E-03
DAV:   9    -0.196831527117E+03    0.13424E-06   -0.17217E-07  7624   0.305E-03    0.353E-03
DAV:  10    -0.196831527134E+03   -0.16789E-07   -0.79371E-08  6176   0.135E-03    0.159E-03
DAV:  11    -0.196831527132E+03    0.23865E-08   -0.39740E-09  3920   0.392E-04
  16 F= -.19683153E+03 E0= -.19683153E+03  d E =-.115113E-02
       N       E                     dE             d eps       ncg     rms          rms(c)
DAV:   1    -0.196830022640E+03    0.15045E-02   -0.57332E-01  5952   0.431E+00    0.141E-01
DAV:   2    -0.196832003822E+03   -0.19812E-02   -0.22413E-02  8448   0.806E-01    0.106E-01
DAV:   3    -0.196831953107E+03    0.50716E-04   -0.44249E-04  8624   0.171E-01    0.645E-02
DAV:   4    -0.196831891305E+03    0.61801E-04   -0.11479E-04  8632   0.653E-02    0.309E-02
DAV:   5    -0.196831881142E+03    0.10164E-04   -0.33728E-05  9104   0.343E-02    0.153E-02
DAV:   6    -0.196831879909E+03    0.12329E-05   -0.87021E-06  9456   0.168E-02    0.114E-02
DAV:   7    -0.196831879959E+03   -0.50364E-07   -0.14402E-06  8544   0.931E-03    0.109E-02
DAV:   8    -0.196831880071E+03   -0.11208E-06   -0.60866E-07  8728   0.534E-03    0.260E-03
DAV:   9    -0.196831879961E+03    0.11079E-06   -0.30178E-07  8600   0.425E-03    0.927E-04
DAV:  10    -0.196831879970E+03   -0.89203E-08   -0.57512E-08  6544   0.114E-03
  17 F= -.19683188E+03 E0= -.19683188E+03  d E =-.352838E-03
       N       E                     dE             d eps       ncg     rms          rms(c)
DAV:   1    -0.196831849664E+03    0.30297E-04   -0.13265E-02  6040   0.655E-01    0.215E-02
DAV:   2    -0.196831895046E+03   -0.45382E-04   -0.51141E-04  8440   0.119E-01    0.161E-02
DAV:   3    -0.196831894043E+03    0.10035E-05   -0.10128E-05  8896   0.258E-02    0.982E-03
DAV:   4    -0.196831892477E+03    0.15653E-05   -0.26295E-06  8592   0.933E-03    0.455E-03
DAV:   5    -0.196831892257E+03    0.22048E-06   -0.74522E-07  9072   0.513E-03    0.221E-03
DAV:   6    -0.196831892206E+03    0.51019E-07   -0.19497E-07  8256   0.255E-03    0.163E-03
DAV:   7    -0.196831892194E+03    0.11656E-07   -0.30893E-08  5152   0.150E-03    0.121E-03
DAV:   8    -0.196831892167E+03    0.27580E-07   -0.24000E-08  5136   0.907E-04    0.373E-04
DAV:   9    -0.196831892176E+03   -0.93896E-08   -0.70326E-09  3920   0.873E-04
  18 F= -.19683189E+03 E0= -.19683189E+03  d E =-.365044E-03
       N       E                     dE             d eps       ncg     rms          rms(c)
DAV:   1    -0.196831329116E+03    0.56305E-03   -0.30746E-01  6008   0.316E+00    0.127E-01
DAV:   2    -0.196832283002E+03   -0.95389E-03   -0.10337E-02  8344   0.527E-01    0.741E-02
DAV:   3    -0.196832262814E+03    0.20188E-04   -0.16662E-04  8744   0.883E-02    0.310E-02
DAV:   4    -0.196832250364E+03    0.12450E-04   -0.19721E-05  8856   0.294E-02    0.163E-02
DAV:   5    -0.196832248382E+03    0.19818E-05   -0.81145E-06  8992   0.211E-02    0.526E-03
DAV:   6    -0.196832248264E+03    0.11792E-06   -0.16202E-06  9216   0.931E-03    0.360E-03
DAV:   7    -0.196832248263E+03    0.98225E-09   -0.18920E-07  8296   0.304E-03    0.292E-03
DAV:   8    -0.196832248236E+03    0.26790E-07   -0.13614E-07  7352   0.216E-03    0.923E-04
DAV:   9    -0.196832248248E+03   -0.11209E-07   -0.29218E-08  5064   0.133E-03    0.413E-04
DAV:  10    -0.196832248240E+03    0.73705E-08   -0.10290E-08  3896   0.637E-04
  19 F= -.19683225E+03 E0= -.19683225E+03  d E =-.356064E-03
       N       E                     dE             d eps       ncg     rms          rms(c)
DAV:   1    -0.196831091291E+03    0.11570E-02   -0.43297E-01  6008   0.375E+00    0.151E-01
DAV:   2    -0.196832437120E+03   -0.13458E-02   -0.14585E-02  8344   0.626E-01    0.887E-02
DAV:   3    -0.196832408790E+03    0.28331E-04   -0.23456E-04  8744   0.104E-01    0.369E-02
DAV:   4    -0.196832391292E+03    0.17497E-04   -0.27568E-05  9024   0.348E-02    0.190E-02
DAV:   5    -0.196832388325E+03    0.29677E-05   -0.11805E-05  9040   0.254E-02    0.599E-03
DAV:   6    -0.196832388226E+03    0.98546E-07   -0.23004E-06  9264   0.110E-02    0.438E-03
DAV:   7    -0.196832388225E+03    0.97134E-09   -0.23876E-07  8248   0.346E-03    0.364E-03
DAV:   8    -0.196832388198E+03    0.27158E-07   -0.19475E-07  7936   0.255E-03    0.105E-03
DAV:   9    -0.196832388207E+03   -0.85529E-08   -0.37858E-08  5176   0.135E-03
  20 F= -.19683239E+03 E0= -.19683239E+03  d E =-.496031E-03
       N       E                     dE             d eps       ncg     rms          rms(c)
DAV:   1    -0.196832087514E+03    0.30068E-03   -0.16622E-01  5960   0.232E+00    0.876E-02
DAV:   2    -0.196832641136E+03   -0.55362E-03   -0.58705E-03  8384   0.388E-01    0.491E-02
DAV:   3    -0.196832633968E+03    0.71681E-05   -0.78473E-05  8752   0.548E-02    0.250E-02
DAV:   4    -0.196832626665E+03    0.73035E-05   -0.10260E-05  8064   0.204E-02    0.859E-03
DAV:   5    -0.196832626148E+03    0.51612E-06   -0.60345E-06  8576   0.135E-02    0.348E-03
DAV:   6    -0.196832626163E+03   -0.14687E-07   -0.66451E-07  8584   0.496E-03    0.410E-03
DAV:   7    -0.196832626154E+03    0.90295E-08   -0.11106E-08  4144   0.102E-03
  21 F= -.19683263E+03 E0= -.19683263E+03  d E =-.237947E-03
       N       E                     dE             d eps       ncg     rms          rms(c)
DAV:   1    -0.196830949664E+03    0.16765E-02   -0.60492E-01  5952   0.443E+00    0.167E-01
DAV:   2    -0.196832976836E+03   -0.20272E-02   -0.21512E-02  8384   0.749E-01    0.940E-02
DAV:   3    -0.196832950651E+03    0.26185E-04   -0.29126E-04  8736   0.108E-01    0.477E-02
DAV:   4    -0.196832924097E+03    0.26554E-04   -0.38196E-05  8456   0.411E-02    0.170E-02
DAV:   5    -0.196832921973E+03    0.21235E-05   -0.20840E-05  8664   0.266E-02    0.662E-03
DAV:   6    -0.196832922095E+03   -0.12110E-06   -0.21759E-06  8560   0.950E-03    0.754E-03
DAV:   7    -0.196832922073E+03    0.21228E-07   -0.73279E-08  7800   0.216E-03    0.701E-03
DAV:   8    -0.196832922062E+03    0.11125E-07   -0.14608E-08  4664   0.122E-03    0.408E-03
DAV:   9    -0.196832922014E+03    0.48338E-07   -0.24340E-07  7368   0.253E-03    0.393E-03
DAV:  10    -0.196832922013E+03    0.78217E-09   -0.19273E-08  4208   0.926E-04
  22 F= -.19683292E+03 E0= -.19683292E+03  d E =-.533806E-03
       N       E                     dE             d eps       ncg     rms          rms(c)
DAV:   1    -0.196824894467E+03    0.80275E-02   -0.24186E+00  5952   0.885E+00    0.334E-01
DAV:   2    -0.196833134675E+03   -0.82402E-02   -0.87535E-02  8376   0.153E+00    0.189E-01
DAV:   3    -0.196833022382E+03    0.11229E-03   -0.12157E-03  8728   0.230E-01    0.959E-02
DAV:   4    -0.196832914394E+03    0.10799E-03   -0.16288E-04  8568   0.903E-02    0.370E-02
DAV:   5    -0.196832904107E+03    0.10287E-04   -0.78212E-05  8672   0.529E-02    0.134E-02
DAV:   6    -0.196832904825E+03   -0.71713E-06   -0.71798E-06  8808   0.171E-02    0.145E-02
DAV:   7    -0.196832904777E+03    0.47865E-07   -0.52305E-07  8984   0.557E-03    0.113E-02
DAV:   8    -0.196832904774E+03    0.22301E-08   -0.22640E-07  9208   0.369E-03    0.384E-03
DAV:   9    -0.196832904761E+03    0.13584E-07   -0.22839E-07  8760   0.301E-03    0.277E-03
DAV:  10    -0.196832904762E+03   -0.69122E-09   -0.18838E-08  4240   0.955E-04
  23 F= -.19683290E+03 E0= -.19683290E+03  d E =-.516555E-03
       N       E                     dE             d eps       ncg     rms          rms(c)
DAV:   1    -0.196831046696E+03    0.18581E-02   -0.60391E-01  5952   0.442E+00    0.167E-01
DAV:   2    -0.196833071999E+03   -0.20253E-02   -0.21500E-02  8376   0.750E-01    0.932E-02
DAV:   3    -0.196833045309E+03    0.26691E-04   -0.29445E-04  8736   0.109E-01    0.484E-02
DAV:   4    -0.196833018552E+03    0.26757E-04   -0.38940E-05  8536   0.423E-02    0.160E-02
DAV:   5    -0.196833016614E+03    0.19381E-05   -0.19962E-05  8808   0.232E-02    0.862E-03
DAV:   6    -0.196833016797E+03   -0.18347E-06   -0.14892E-06  8688   0.678E-03    0.780E-03
DAV:   7    -0.196833016794E+03    0.33288E-08   -0.33834E-08  5808   0.145E-03
  24 F= -.19683302E+03 E0= -.19683302E+03  d E =-.628587E-03
       N       E                     dE             d eps       ncg     rms          rms(c)
DAV:   1    -0.196832818376E+03    0.19842E-03   -0.10842E-01  5952   0.189E+00    0.625E-02
DAV:   2    -0.196833197092E+03   -0.37872E-03   -0.40447E-03  8288   0.319E-01    0.424E-02
DAV:   3    -0.196833193376E+03    0.37163E-05   -0.62377E-05  8712   0.608E-02    0.239E-02
DAV:   4    -0.196833188168E+03    0.52079E-05   -0.87630E-06  8904   0.205E-02    0.999E-03
DAV:   5    -0.196833187452E+03    0.71557E-06   -0.36322E-06  8864   0.123E-02    0.450E-03
DAV:   6    -0.196833187497E+03   -0.45038E-07   -0.41171E-07  9488   0.404E-03    0.397E-03
DAV:   7    -0.196833187510E+03   -0.12820E-07   -0.45085E-08  5752   0.166E-03    0.281E-03
DAV:   8    -0.196833187542E+03   -0.31938E-07   -0.47924E-08  6032   0.116E-03    0.683E-04
DAV:   9    -0.196833187526E+03    0.16240E-07   -0.81618E-09  3944   0.794E-04    0.319E-04
DAV:  10    -0.196833187524E+03    0.22883E-08   -0.89280E-09  3736   0.575E-04
  25 F= -.19683319E+03 E0= -.19683319E+03  d E =-.170730E-03
       N       E                     dE             d eps       ncg     rms          rms(c)
DAV:   1    -0.196830998243E+03    0.21893E-02   -0.69224E-01  5952   0.477E+00    0.159E-01
DAV:   2    -0.196833435010E+03   -0.24368E-02   -0.26017E-02  8296   0.817E-01    0.106E-01
DAV:   3    -0.196833409231E+03    0.25778E-04   -0.40342E-04  8696   0.154E-01    0.604E-02
DAV:   4    -0.196833373416E+03    0.35815E-04   -0.59607E-05  8888   0.554E-02    0.258E-02
DAV:   5    -0.196833369282E+03    0.41342E-05   -0.23678E-05  8976   0.302E-02    0.115E-02
DAV:   6    -0.196833369511E+03   -0.22936E-06   -0.24384E-06  9600   0.971E-03    0.101E-02
DAV:   7    -0.196833369576E+03   -0.64894E-07   -0.29619E-07  8864   0.414E-03    0.715E-03
DAV:   8    -0.196833369691E+03   -0.11464E-06   -0.21877E-07  7392   0.280E-03    0.116E-03
DAV:   9    -0.196833369660E+03    0.30759E-07   -0.63752E-08  6864   0.183E-03    0.833E-04
DAV:  10    -0.196833369656E+03    0.41546E-08   -0.52957E-09  4016   0.574E-04
  26 F= -.19683337E+03 E0= -.19683337E+03  d E =-.352862E-03
       N       E                     dE             d eps       ncg     rms          rms(c)
DAV:   1    -0.196832866590E+03    0.50307E-03   -0.23618E-01  6000   0.275E+00    0.104E-01
DAV:   2    -0.196833613748E+03   -0.74716E-03   -0.79662E-03  8360   0.457E-01    0.545E-02
DAV:   3    -0.196833602732E+03    0.11015E-04   -0.11737E-04  8744   0.717E-02    0.279E-02
DAV:   4    -0.196833591834E+03    0.10898E-04   -0.16341E-05  8336   0.286E-02    0.961E-03
DAV:   5    -0.196833590833E+03    0.10013E-05   -0.81064E-06  8792   0.165E-02    0.499E-03
DAV:   6    -0.196833590786E+03    0.46835E-07   -0.74158E-07  8888   0.574E-03    0.497E-03
DAV:   7    -0.196833590753E+03    0.32935E-07   -0.32357E-08  5360   0.154E-03    0.452E-03
DAV:   8    -0.196833590633E+03    0.12036E-06   -0.31745E-07  8248   0.292E-03    0.161E-03
DAV:   9    -0.196833590639E+03   -0.59699E-08   -0.66368E-08  6312   0.157E-03
  27 F= -.19683359E+03 E0= -.19683359E+03  d E =-.220983E-03
       N       E                     dE             d eps       ncg     rms          rms(c)
DAV:   1    -0.196832818436E+03    0.77220E-03   -0.28699E-01  6000   0.303E+00    0.114E-01
DAV:   2    -0.196833726696E+03   -0.90826E-03   -0.96846E-03  8360   0.504E-01    0.600E-02
DAV:   3    -0.196833713212E+03    0.13484E-04   -0.14254E-04  8736   0.790E-02    0.307E-02
DAV:   4    -0.196833699910E+03    0.13301E-04   -0.20044E-05  8400   0.316E-02    0.105E-02
DAV:   5    -0.196833698705E+03    0.12053E-05   -0.98936E-06  8776   0.183E-02    0.543E-03
DAV:   6    -0.196833698658E+03    0.47326E-07   -0.91402E-07  8808   0.641E-03    0.550E-03
DAV:   7    -0.196833698621E+03    0.36529E-07   -0.43485E-08  6248   0.169E-03    0.531E-03
DAV:   8    -0.196833698501E+03    0.11976E-06   -0.23988E-07  8328   0.274E-03    0.166E-03
DAV:   9    -0.196833698491E+03    0.10015E-07   -0.54479E-08  6024   0.140E-03    0.155E-03
DAV:  10    -0.196833698494E+03   -0.23429E-08   -0.11563E-08  3992   0.726E-04
  28 F= -.19683370E+03 E0= -.19683370E+03  d E =-.328838E-03
       N       E                     dE             d eps       ncg     rms          rms(c)
DAV:   1    -0.196833622259E+03    0.76233E-04   -0.26821E-02  6008   0.926E-01    0.350E-02
DAV:   2    -0.196833706985E+03   -0.84726E-04   -0.90286E-04  8368   0.154E-01    0.183E-02
DAV:   3    -0.196833705775E+03    0.12097E-05   -0.13351E-05  8960   0.244E-02    0.940E-03
DAV:   4    -0.196833704496E+03    0.12796E-05   -0.17946E-06  8656   0.944E-03    0.329E-03
DAV:   5    -0.196833704377E+03    0.11905E-06   -0.87508E-07  8808   0.509E-03    0.173E-03
DAV:   6    -0.196833704359E+03    0.17804E-07   -0.71922E-08  7720   0.173E-03    0.163E-03
DAV:   7    -0.196833704351E+03    0.83128E-08   -0.45132E-09  4032   0.581E-04
  29 F= -.19683370E+03 E0= -.19683370E+03  d E =-.334695E-03
       N       E                     dE             d eps       ncg     rms          rms(c)
DAV:   1    -0.196833443446E+03    0.26091E-03   -0.12554E-01  6000   0.192E+00    0.554E-02
DAV:   2    -0.196833818518E+03   -0.37507E-03   -0.39456E-03  8360   0.323E-01    0.323E-02
DAV:   3    -0.196833815691E+03    0.28271E-05   -0.52372E-05  8832   0.466E-02    0.195E-02
DAV:   4    -0.196833811411E+03    0.42808E-05   -0.85297E-06  8688   0.189E-02    0.953E-03
DAV:   5    -0.196833810765E+03    0.64557E-06   -0.27803E-06  9344   0.102E-02    0.393E-03
DAV:   6    -0.196833810772E+03   -0.66939E-08   -0.73109E-07  9112   0.460E-03    0.274E-03
DAV:   7    -0.196833810782E+03   -0.10543E-07   -0.69097E-08  6624   0.167E-03    0.196E-03
DAV:   8    -0.196833810792E+03   -0.94988E-08   -0.34876E-08  5240   0.102E-03
  30 F= -.19683381E+03 E0= -.19683381E+03  d E =-.106441E-03
       N       E                     dE             d eps       ncg     rms          rms(c)
DAV:   1    -0.196832596302E+03    0.12145E-02   -0.44176E-01  5992   0.361E+00    0.104E-01
DAV:   2    -0.196833920521E+03   -0.13242E-02   -0.13939E-02  8368   0.610E-01    0.607E-02
DAV:   3    -0.196833910507E+03    0.10015E-04   -0.18612E-04  8784   0.880E-02    0.366E-02
DAV:   4    -0.196833895295E+03    0.15212E-04   -0.30756E-05  8704   0.361E-02    0.187E-02
DAV:   5    -0.196833893070E+03    0.22249E-05   -0.94202E-06  9344   0.184E-02    0.789E-03
DAV:   6    -0.196833892980E+03    0.90065E-07   -0.26185E-06  9024   0.905E-03    0.518E-03
DAV:   7    -0.196833893038E+03   -0.58335E-07   -0.35356E-07  8640   0.329E-03    0.368E-03
DAV:   8    -0.196833893093E+03   -0.54581E-07   -0.14597E-07  7024   0.201E-03    0.161E-03
DAV:   9    -0.196833893040E+03    0.53253E-07   -0.64705E-08  5840   0.206E-03    0.700E-04
DAV:  10    -0.196833893038E+03    0.14661E-08   -0.69129E-08  5672   0.118E-03
  31 F= -.19683389E+03 E0= -.19683389E+03  d E =-.188688E-03
       N       E                     dE             d eps       ncg     rms          rms(c)
DAV:   1    -0.196833712553E+03    0.18049E-03   -0.11054E-01  5856   0.164E+00    0.507E-02
DAV:   2    -0.196833999812E+03   -0.28726E-03   -0.29999E-03  8328   0.273E-01    0.232E-02
DAV:   3    -0.196833996508E+03    0.33045E-05   -0.30981E-05  8784   0.333E-02    0.138E-02
DAV:   4    -0.196833993334E+03    0.31737E-05   -0.46969E-06  8016   0.125E-02    0.536E-03
DAV:   5    -0.196833993096E+03    0.23796E-06   -0.27551E-06  7392   0.797E-03    0.149E-03
DAV:   6    -0.196833993145E+03   -0.48825E-07   -0.45598E-07  7688   0.297E-03    0.130E-03
DAV:   7    -0.196833993151E+03   -0.65556E-08   -0.26092E-08  4912   0.823E-04
  32 F= -.19683399E+03 E0= -.19683399E+03  d E =-.100113E-03
       N       E                     dE             d eps       ncg     rms          rms(c)
DAV:   1    -0.196831600870E+03    0.23923E-02   -0.99472E-01  5856   0.493E+00    0.150E-01
DAV:   2    -0.196834211762E+03   -0.26109E-02   -0.27278E-02  8320   0.833E-01    0.718E-02
DAV:   3    -0.196834180758E+03    0.31004E-04   -0.28134E-04  8624   0.104E-01    0.417E-02
DAV:   4    -0.196834153997E+03    0.26761E-04   -0.38244E-05  8536   0.366E-02    0.198E-02
DAV:   5    -0.196834149009E+03    0.49881E-05   -0.24903E-05  8344   0.276E-02    0.440E-03
DAV:   6    -0.196834149624E+03   -0.61540E-06   -0.50697E-06  8360   0.104E-02    0.515E-03
DAV:   7    -0.196834149660E+03   -0.36362E-07   -0.21164E-07  7800   0.232E-03    0.399E-03
DAV:   8    -0.196834149638E+03    0.22381E-07   -0.25975E-07  7136   0.313E-03    0.106E-03
DAV:   9    -0.196834149628E+03    0.95388E-08   -0.45416E-08  5720   0.135E-03
  33 F= -.19683415E+03 E0= -.19683415E+03  d E =-.256590E-03
       N       E                     dE             d eps       ncg     rms          rms(c)
DAV:   1    -0.196834036765E+03    0.11287E-03   -0.49492E-02  5880   0.110E+00    0.338E-02
DAV:   2    -0.196834165307E+03   -0.12854E-03   -0.13429E-03  8352   0.183E-01    0.155E-02
DAV:   3    -0.196834163820E+03    0.14867E-05   -0.13791E-05  8832   0.222E-02    0.931E-03
DAV:   4    -0.196834162381E+03    0.14396E-05   -0.21641E-06  7952   0.840E-03    0.347E-03
DAV:   5    -0.196834162297E+03    0.83441E-07   -0.12470E-06  7744   0.529E-03    0.105E-03
DAV:   6    -0.196834162318E+03   -0.21180E-07   -0.18198E-07  6904   0.186E-03    0.806E-04
DAV:   7    -0.196834162322E+03   -0.40636E-08   -0.13256E-08  4272   0.617E-04
  34 F= -.19683416E+03 E0= -.19683416E+03  d E =-.269284E-03
       N       E                     dE             d eps       ncg     rms          rms(c)
DAV:   1    -0.196833666360E+03    0.49596E-03   -0.19799E-01  5864   0.220E+00    0.677E-02
DAV:   2    -0.196834181918E+03   -0.51556E-03   -0.53838E-03  8344   0.367E-01    0.313E-02
DAV:   3    -0.196834175979E+03    0.59390E-05   -0.55199E-05  8640   0.447E-02    0.185E-02
DAV:   4    -0.196834170406E+03    0.55730E-05   -0.81909E-06  8064   0.164E-02    0.755E-03
DAV:   5    -0.196834169859E+03    0.54770E-06   -0.49472E-06  7512   0.109E-02    0.193E-03
DAV:   6    -0.196834169955E+03   -0.96530E-07   -0.87017E-07  8200   0.408E-03    0.194E-03
DAV:   7    -0.196834169964E+03   -0.84910E-08   -0.40477E-08  5024   0.989E-04
  35 F= -.19683417E+03 E0= -.19683417E+03  d E =-.276925E-03
       N       E                     dE             d eps       ncg     rms          rms(c)
DAV:   1    -0.196833304016E+03    0.86594E-03   -0.37739E-01  6104   0.301E+00    0.808E-02
DAV:   2    -0.196834312328E+03   -0.10083E-02   -0.10499E-02  8232   0.499E-01    0.384E-02
DAV:   3    -0.196834303337E+03    0.89909E-05   -0.11786E-04  8624   0.620E-02    0.253E-02
DAV:   4    -0.196834290600E+03    0.12737E-04   -0.23562E-05  8000   0.298E-02    0.841E-03
DAV:   5    -0.196834290973E+03   -0.37229E-06   -0.94805E-06  7680   0.126E-02    0.520E-03
DAV:   6    -0.196834291043E+03   -0.70027E-07   -0.13327E-06  8288   0.585E-03    0.231E-03
DAV:   7    -0.196834291003E+03    0.39650E-07   -0.20943E-07  8568   0.313E-03    0.102E-03
DAV:   8    -0.196834290994E+03    0.90840E-08   -0.14753E-07  6408   0.166E-03    0.794E-04
DAV:   9    -0.196834290989E+03    0.51077E-08   -0.10447E-08  4008   0.886E-04
  36 F= -.19683429E+03 E0= -.19683429E+03  d E =-.121025E-03
       N       E                     dE             d eps       ncg     rms          rms(c)
DAV:   1    -0.196830425465E+03    0.38655E-02   -0.14959E+00  6104   0.600E+00    0.161E-01
DAV:   2    -0.196834456598E+03   -0.40311E-02   -0.42019E-02  8224   0.101E+00    0.761E-02
DAV:   3    -0.196834417808E+03    0.38790E-04   -0.47597E-04  8600   0.130E-01    0.503E-02
DAV:   4    -0.196834367436E+03    0.50372E-04   -0.95034E-05  8352   0.619E-02    0.198E-02
DAV:   5    -0.196834368391E+03   -0.95561E-06   -0.35932E-05  7896   0.253E-02    0.111E-02
DAV:   6    -0.196834368601E+03   -0.20962E-06   -0.48485E-06  9032   0.117E-02    0.326E-03
DAV:   7    -0.196834368514E+03    0.86853E-07   -0.55424E-07  8816   0.495E-03    0.208E-03
DAV:   8    -0.196834368487E+03    0.26608E-07   -0.71832E-07  7768   0.416E-03    0.138E-03
DAV:   9    -0.196834368465E+03    0.22388E-07   -0.88089E-08  6984   0.186E-03    0.847E-04
DAV:  10    -0.196834368453E+03    0.11711E-07   -0.89545E-08  6056   0.140E-03    0.342E-04
DAV:  11    -0.196834368443E+03    0.10470E-07   -0.96726E-09  4280   0.661E-04    0.157E-04
DAV:  12    -0.196834368443E+03   -0.26193E-09   -0.35328E-09  3632   0.453E-04
  37 F= -.19683437E+03 E0= -.19683437E+03  d E =-.198479E-03
       N       E                     dE             d eps       ncg     rms          rms(c)
DAV:   1    -0.196833818332E+03    0.55011E-03   -0.22206E-01  6056   0.247E+00    0.759E-02
DAV:   2    -0.196834465371E+03   -0.64704E-03   -0.68733E-03  8296   0.435E-01    0.442E-02
DAV:   3    -0.196834457404E+03    0.79666E-05   -0.10996E-04  8640   0.851E-02    0.243E-02
DAV:   4    -0.196834449966E+03    0.74385E-05   -0.12818E-05  8872   0.242E-02    0.154E-02
DAV:   5    -0.196834448379E+03    0.15862E-05   -0.41112E-06  9008   0.125E-02    0.807E-03
DAV:   6    -0.196834447617E+03    0.76191E-06   -0.17933E-06  8104   0.942E-03    0.227E-03
DAV:   7    -0.196834447697E+03   -0.79031E-07   -0.80155E-07  9208   0.452E-03    0.236E-03
DAV:   8    -0.196834447694E+03    0.28376E-08   -0.25578E-08  4864   0.106E-03
  38 F= -.19683445E+03 E0= -.19683445E+03  d E =-.792507E-04
       N       E                     dE             d eps       ncg     rms          rms(c)
DAV:   1    -0.196834375564E+03    0.72132E-04   -0.28080E-02  6056   0.877E-01    0.266E-02
DAV:   2    -0.196834457123E+03   -0.81559E-04   -0.86647E-04  8304   0.153E-01    0.155E-02
DAV:   3    -0.196834456178E+03    0.94540E-06   -0.13722E-05  8856   0.300E-02    0.859E-03
DAV:   4    -0.196834455338E+03    0.83901E-06   -0.15125E-06  8824   0.809E-03    0.559E-03
DAV:   5    -0.196834455126E+03    0.21261E-06   -0.48070E-07  8840   0.427E-03    0.298E-03
DAV:   6    -0.196834455041E+03    0.84859E-07   -0.24831E-07  8080   0.344E-03    0.836E-04
DAV:   7    -0.196834455054E+03   -0.12558E-07   -0.10253E-07  8016   0.164E-03    0.757E-04
DAV:   8    -0.196834455054E+03   -0.61482E-09   -0.37349E-09  3984   0.482E-04
  39 F= -.19683446E+03 E0= -.19683446E+03  d E =-.866112E-04
       N       E                     dE             d eps       ncg     rms          rms(c)
DAV:   1    -0.196833938718E+03    0.51634E-03   -0.21748E-01  6056   0.238E+00    0.629E-02
DAV:   2    -0.196834557070E+03   -0.61835E-03   -0.64124E-03  8256   0.398E-01    0.308E-02
DAV:   3    -0.196834553029E+03    0.40416E-05   -0.80580E-05  8608   0.522E-02    0.194E-02
DAV:   4    -0.196834546262E+03    0.67667E-05   -0.11574E-05  8440   0.222E-02    0.648E-03
DAV:   5    -0.196834546277E+03   -0.14636E-07   -0.58600E-06  7952   0.111E-02    0.231E-03
DAV:   6    -0.196834546305E+03   -0.28431E-07   -0.36432E-07  8736   0.318E-03    0.193E-03
DAV:   7    -0.196834546292E+03    0.13297E-07   -0.18193E-08  4464   0.999E-04    0.111E-03
DAV:   8    -0.196834546269E+03    0.22559E-07   -0.38321E-08  5728   0.113E-03    0.361E-04
DAV:   9    -0.196834546267E+03    0.23465E-08   -0.11246E-08  3816   0.772E-04
  40 F= -.19683455E+03 E0= -.19683455E+03  d E =-.912127E-04
       N       E                     dE             d eps       ncg     rms          rms(c)
DAV:   1    -0.196829134548E+03    0.54117E-02   -0.19561E+00  6056   0.713E+00    0.189E-01
DAV:   2    -0.196834808828E+03   -0.56743E-02   -0.58967E-02  8288   0.123E+00    0.950E-02
DAV:   3    -0.196834766026E+03    0.42802E-04   -0.75208E-04  8648   0.168E-01    0.588E-02
DAV:   4    -0.196834706114E+03    0.59913E-04   -0.10370E-04  9096   0.710E-02    0.277E-02
DAV:   5    -0.196834702629E+03    0.34849E-05   -0.47800E-05  9136   0.354E-02    0.714E-03
DAV:   6    -0.196834703077E+03   -0.44775E-06   -0.29536E-06  9240   0.105E-02    0.590E-03
DAV:   7    -0.196834703139E+03   -0.62650E-07   -0.25406E-07  8584   0.338E-03    0.353E-03
DAV:   8    -0.196834703019E+03    0.12057E-06   -0.23078E-07  8600   0.361E-03    0.106E-03
DAV:   9    -0.196834702998E+03    0.20176E-07   -0.83674E-08  6472   0.157E-03    0.565E-04
DAV:  10    -0.196834702988E+03    0.10012E-07   -0.13399E-08  4192   0.646E-04    0.322E-04
DAV:  11    -0.196834702978E+03    0.10892E-07   -0.35041E-09  3768   0.569E-04    0.212E-04
DAV:  12    -0.196834702978E+03   -0.54933E-09   -0.22473E-09  3528   0.379E-04
  41 F= -.19683470E+03 E0= -.19683470E+03  d E =-.247924E-03
       N       E                     dE             d eps       ncg     rms          rms(c)
DAV:   1    -0.196833581343E+03    0.11216E-02   -0.45352E-01  6192   0.340E+00    0.893E-02
DAV:   2    -0.196834864604E+03   -0.12833E-02   -0.13435E-02  8256   0.577E-01    0.426E-02
DAV:   3    -0.196834852368E+03    0.12236E-04   -0.17604E-04  8728   0.774E-02    0.278E-02
DAV:   4    -0.196834834731E+03    0.17637E-04   -0.30464E-05  8496   0.359E-02    0.804E-03
DAV:   5    -0.196834834919E+03   -0.18750E-06   -0.15023E-05  8440   0.189E-02    0.365E-03
DAV:   6    -0.196834834902E+03    0.16156E-07   -0.95420E-07  8672   0.569E-03    0.268E-03
DAV:   7    -0.196834834862E+03    0.40873E-07   -0.75665E-08  7368   0.172E-03    0.280E-03
DAV:   8    -0.196834834850E+03    0.11223E-07   -0.74208E-09  4104   0.719E-04    0.218E-03
DAV:   9    -0.196834834769E+03    0.80956E-07   -0.12725E-07  6768   0.204E-03    0.211E-03
DAV:  10    -0.196834834778E+03   -0.88585E-08   -0.21476E-08  4632   0.950E-04
  42 F= -.19683483E+03 E0= -.19683483E+03  d E =-.131800E-03
       N       E                     dE             d eps       ncg     rms          rms(c)
DAV:   1    -0.196834543745E+03    0.29102E-03   -0.11735E-01  6192   0.173E+00    0.454E-02
DAV:   2    -0.196834874299E+03   -0.33055E-03   -0.34589E-03  8232   0.291E-01    0.217E-02
DAV:   3    -0.196834871225E+03    0.30742E-05   -0.45581E-05  8712   0.399E-02    0.142E-02
DAV:   4    -0.196834866719E+03    0.45052E-05   -0.74221E-06  8640   0.179E-02    0.418E-03
DAV:   5    -0.196834866696E+03    0.23712E-07   -0.38808E-06  8480   0.983E-03    0.191E-03
DAV:   6    -0.196834866676E+03    0.19449E-07   -0.24730E-07  8648   0.295E-03    0.136E-03
DAV:   7    -0.196834866661E+03    0.15716E-07   -0.12237E-08  4056   0.848E-04    0.102E-03
DAV:   8    -0.196834866631E+03    0.29075E-07   -0.55168E-08  6688   0.123E-03    0.530E-04
DAV:   9    -0.196834866633E+03   -0.17062E-08   -0.10630E-08  3840   0.834E-04
  43 F= -.19683487E+03 E0= -.19683487E+03  d E =-.163655E-03
       N       E                     dE             d eps       ncg     rms          rms(c)
DAV:   1    -0.196833559808E+03    0.13068E-02   -0.46938E-01  6192   0.345E+00    0.908E-02
DAV:   2    -0.196834888324E+03   -0.13285E-02   -0.13909E-02  8256   0.587E-01    0.434E-02
DAV:   3    -0.196834875614E+03    0.12711E-04   -0.18227E-04  8744   0.788E-02    0.283E-02
DAV:   4    -0.196834857303E+03    0.18310E-04   -0.31782E-05  8496   0.367E-02    0.819E-03
DAV:   5    -0.196834857515E+03   -0.21214E-06   -0.15565E-05  8432   0.192E-02    0.371E-03
DAV:   6    -0.196834857499E+03    0.16749E-07   -0.97244E-07  8704   0.574E-03    0.273E-03
DAV:   7    -0.196834857456E+03    0.42157E-07   -0.78512E-08  7480   0.175E-03    0.289E-03
DAV:   8    -0.196834857446E+03    0.10725E-07   -0.71737E-09  4104   0.696E-04    0.228E-03
DAV:   9    -0.196834857361E+03    0.84459E-07   -0.13000E-07  6760   0.208E-03    0.226E-03
DAV:  10    -0.196834857371E+03   -0.94478E-08   -0.22660E-08  4680   0.950E-04
  44 F= -.19683486E+03 E0= -.19683486E+03  d E =-.154393E-03
       N       E                     dE             d eps       ncg     rms          rms(c)
DAV:   1    -0.196834467425E+03    0.38994E-03   -0.14718E-01  6192   0.193E+00    0.513E-02
DAV:   2    -0.196834881658E+03   -0.41423E-03   -0.43363E-03  8216   0.327E-01    0.245E-02
DAV:   3    -0.196834877642E+03    0.40157E-05   -0.58518E-05  8720   0.472E-02    0.160E-02
DAV:   4    -0.196834872591E+03    0.50508E-05   -0.72436E-06  9224   0.185E-02    0.640E-03
DAV:   5    -0.196834872071E+03    0.52021E-06   -0.48885E-06  8672   0.119E-02    0.200E-03
DAV:   6    -0.196834872109E+03   -0.38046E-07   -0.57400E-07  8256   0.380E-03    0.134E-03
DAV:   7    -0.196834872122E+03   -0.12835E-07   -0.29908E-08  5208   0.101E-03    0.116E-03
DAV:   8    -0.196834872129E+03   -0.74506E-08   -0.31544E-08  5408   0.110E-03
  45 F= -.19683487E+03 E0= -.19683487E+03  d E =-.169151E-03
       N       E                     dE             d eps       ncg     rms          rms(c)
DAV:   1    -0.196833459271E+03    0.14129E-02   -0.48979E-01  6032   0.373E+00    0.116E-01
DAV:   2    -0.196834964209E+03   -0.15049E-02   -0.15937E-02  8416   0.670E-01    0.638E-02
DAV:   3    -0.196834943844E+03    0.20365E-04   -0.26266E-04  8624   0.132E-01    0.356E-02
DAV:   4    -0.196834926580E+03    0.17264E-04   -0.33879E-05  8912   0.414E-02    0.225E-02
DAV:   5    -0.196834924183E+03    0.23969E-05   -0.93690E-06  9048   0.187E-02    0.113E-02
DAV:   6    -0.196834922805E+03    0.13786E-05   -0.38868E-06  8032   0.142E-02    0.251E-03
DAV:   7    -0.196834922957E+03   -0.15204E-06   -0.14027E-06  8864   0.529E-03    0.294E-03
DAV:   8    -0.196834922939E+03    0.17651E-07   -0.63771E-08  6272   0.175E-03    0.284E-03
DAV:   9    -0.196834922949E+03   -0.94406E-08   -0.23943E-08  4784   0.970E-04
  46 F= -.19683492E+03 E0= -.19683492E+03  d E =-.508191E-04
       N       E                     dE             d eps       ncg     rms          rms(c)
DAV:   1    -0.196834798780E+03    0.12416E-03   -0.46270E-02  6024   0.115E+00    0.351E-02
DAV:   2    -0.196834938437E+03   -0.13966E-03   -0.14787E-03  8296   0.200E-01    0.195E-02
DAV:   3    -0.196834936891E+03    0.15464E-05   -0.24504E-05  8832   0.392E-02    0.109E-02
DAV:   4    -0.196834935112E+03    0.17782E-05   -0.30398E-06  8784   0.115E-02    0.645E-03
DAV:   5    -0.196834934921E+03    0.19103E-06   -0.89343E-07  9216   0.598E-03    0.301E-03
DAV:   6    -0.196834934789E+03    0.13230E-06   -0.35303E-07  7816   0.410E-03    0.829E-04
DAV:   7    -0.196834934804E+03   -0.15159E-07   -0.11517E-07  7904   0.152E-03    0.994E-04
DAV:   8    -0.196834934802E+03    0.26776E-08   -0.37492E-09  3968   0.486E-04
  47 F= -.19683493E+03 E0= -.19683493E+03  d E =-.626722E-04
       N       E                     dE             d eps       ncg     rms          rms(c)
DAV:   1    -0.196834823336E+03    0.11147E-03   -0.54297E-02  6248   0.124E+00    0.368E-02
DAV:   2    -0.196834986524E+03   -0.16319E-03   -0.16977E-03  8176   0.195E-01    0.190E-02
DAV:   3    -0.196834985314E+03    0.12100E-05   -0.25051E-05  8760   0.294E-02    0.935E-03
DAV:   4    -0.196834984031E+03    0.12821E-05   -0.20723E-06  8344   0.876E-03    0.559E-03
DAV:   5    -0.196834983579E+03    0.45211E-06   -0.98771E-07  9104   0.682E-03    0.218E-03
DAV:   6    -0.196834983552E+03    0.27598E-07   -0.32111E-07  8360   0.344E-03    0.108E-03
DAV:   7    -0.196834983543E+03    0.85602E-08   -0.60145E-08  6112   0.136E-03
  48 F= -.19683498E+03 E0= -.19683498E+03  d E =-.487415E-04
       N       E                     dE             d eps       ncg     rms          rms(c)
DAV:   1    -0.196833596836E+03    0.13867E-02   -0.48864E-01  6248   0.373E+00    0.111E-01
DAV:   2    -0.196835079669E+03   -0.14828E-02   -0.15473E-02  8272   0.597E-01    0.559E-02
DAV:   3    -0.196835067243E+03    0.12427E-04   -0.22777E-04  8544   0.928E-02    0.280E-02
DAV:   4    -0.196835055203E+03    0.12040E-04   -0.20299E-05  8808   0.285E-02    0.171E-02
DAV:   5    -0.196835052033E+03    0.31695E-05   -0.72601E-06  9424   0.186E-02    0.784E-03
DAV:   6    -0.196835051365E+03    0.66838E-06   -0.31347E-06  8344   0.124E-02    0.363E-03
DAV:   7    -0.196835051422E+03   -0.56927E-07   -0.10144E-06  8648   0.467E-03    0.327E-03
DAV:   8    -0.196835051391E+03    0.30941E-07   -0.76796E-08  6736   0.125E-03    0.201E-03
DAV:   9    -0.196835051353E+03    0.37628E-07   -0.19950E-08  4368   0.130E-03    0.747E-04
DAV:  10    -0.196835051335E+03    0.17993E-07   -0.31088E-08  5248   0.957E-04    0.366E-04
DAV:  11    -0.196835051333E+03    0.18590E-08   -0.52738E-09  3712   0.520E-04
  49 F= -.19683505E+03 E0= -.19683505E+03  d E =-.116532E-03
       N       E                     dE             d eps       ncg     rms          rms(c)
DAV:   1    -0.196834887731E+03    0.16360E-03   -0.61339E-02  6128   0.140E+00    0.599E-02
DAV:   2    -0.196835083559E+03   -0.19583E-03   -0.20743E-03  8304   0.219E-01    0.294E-02
DAV:   3    -0.196835081606E+03    0.19531E-05   -0.36809E-05  8632   0.364E-02    0.121E-02
DAV:   4    -0.196835080035E+03    0.15712E-05   -0.31597E-06  8784   0.113E-02    0.563E-03
DAV:   5    -0.196835079665E+03    0.37004E-06   -0.91086E-07  8928   0.698E-03    0.250E-03
DAV:   6    -0.196835079639E+03    0.25924E-07   -0.37172E-07  9408   0.347E-03    0.221E-03
DAV:   7    -0.196835079638E+03    0.10477E-08   -0.29353E-08  4952   0.140E-03
  50 F= -.19683508E+03 E0= -.19683508E+03  d E =-.283044E-04
       N       E                     dE             d eps       ncg     rms          rms(c)
DAV:   1    -0.196835062707E+03    0.16932E-04   -0.60803E-03  6136   0.442E-01    0.189E-02
DAV:   2    -0.196835081927E+03   -0.19220E-04   -0.20520E-04  8304   0.689E-02    0.918E-03
DAV:   3    -0.196835081750E+03    0.17747E-06   -0.38495E-06  8736   0.120E-02    0.382E-03
DAV:   4    -0.196835081595E+03    0.15539E-06   -0.32852E-07  9168   0.380E-03    0.193E-03
DAV:   5    -0.196835081565E+03    0.29504E-07   -0.76195E-08  7176   0.208E-03    0.954E-04
DAV:   6    -0.196835081555E+03    0.99062E-08   -0.38246E-08  5160   0.137E-03
  51 F= -.19683508E+03 E0= -.19683508E+03  d E =-.302217E-04
       N       E                     dE             d eps       ncg     rms          rms(c)
DAV:   1    -0.196834938825E+03    0.14274E-03   -0.54117E-02  6008   0.132E+00    0.399E-02
DAV:   2    -0.196835104519E+03   -0.16569E-03   -0.17720E-03  8296   0.207E-01    0.226E-02
DAV:   3    -0.196835102746E+03    0.17729E-05   -0.30866E-05  8536   0.384E-02    0.121E-02
DAV:   4    -0.196835100966E+03    0.17794E-05   -0.29610E-06  8960   0.124E-02    0.640E-03
DAV:   5    -0.196835100546E+03    0.42043E-06   -0.18153E-06  8976   0.871E-03    0.188E-03
DAV:   6    -0.196835100583E+03   -0.37388E-07   -0.35571E-07  9096   0.328E-03    0.198E-03
DAV:   7    -0.196835100598E+03   -0.14879E-07   -0.11701E-08  4176   0.850E-04    0.166E-03
DAV:   8    -0.196835100618E+03   -0.19674E-07   -0.16635E-08  4408   0.108E-03    0.501E-04
DAV:   9    -0.196835100616E+03    0.22847E-08   -0.86687E-09  3840   0.922E-04
  52 F= -.19683510E+03 E0= -.19683510E+03  d E =-.190603E-04
       N       E                     dE             d eps       ncg     rms          rms(c)
DAV:   1    -0.196835097802E+03    0.28161E-05   -0.10752E-03  6032   0.185E-01    0.558E-03
DAV:   2    -0.196835101035E+03   -0.32333E-05   -0.35066E-05  8288   0.290E-02    0.322E-03
DAV:   3    -0.196835100986E+03    0.48687E-07   -0.60672E-07  8696   0.536E-03    0.173E-03
DAV:   4    -0.196835100961E+03    0.25804E-07   -0.61003E-08  7112   0.182E-03    0.912E-04
DAV:   5    -0.196835100953E+03    0.80581E-08   -0.37197E-08  5160   0.133E-03    0.348E-04
DAV:   6    -0.196835100957E+03   -0.41327E-08   -0.92150E-09  3808   0.762E-04
  53 F= -.19683510E+03 E0= -.19683510E+03  d E =-.194014E-04
       N       E                     dE             d eps       ncg     rms          rms(c)
DAV:   1    -0.196835024402E+03    0.76550E-04   -0.30209E-02  5936   0.944E-01    0.418E-02
DAV:   2    -0.196835111908E+03   -0.87506E-04   -0.96627E-04  8488   0.166E-01    0.208E-02
DAV:   3    -0.196835109201E+03    0.27067E-05   -0.18371E-05  8864   0.332E-02    0.995E-03
DAV:   4    -0.196835107223E+03    0.19786E-05   -0.31697E-06  8584   0.132E-02    0.475E-03
DAV:   5    -0.196835107053E+03    0.16934E-06   -0.10383E-06  9280   0.595E-03    0.239E-03
DAV:   6    -0.196835106942E+03    0.11105E-06   -0.12914E-07  7536   0.231E-03    0.104E-03
DAV:   7    -0.196835106916E+03    0.26666E-07   -0.75711E-08  6760   0.147E-03    0.421E-04
DAV:   8    -0.196835106910E+03    0.61445E-08   -0.11343E-08  4016   0.771E-04
  54 F= -.19683511E+03 E0= -.19683511E+03  d E =-.595293E-05
       N       E                     dE             d eps       ncg     rms          rms(c)
DAV:   1    -0.196835098788E+03    0.81282E-05   -0.39556E-03  5952   0.342E-01    0.154E-02
DAV:   2    -0.196835110355E+03   -0.11568E-04   -0.12728E-04  8496   0.607E-02    0.781E-03
DAV:   3    -0.196835109938E+03    0.41749E-06   -0.24734E-06  8800   0.124E-02    0.386E-03
DAV:   4    -0.196835109739E+03    0.19934E-06   -0.44497E-07  8688   0.507E-03    0.156E-03
DAV:   5    -0.196835109712E+03    0.26361E-07   -0.14103E-07  8184   0.223E-03    0.819E-04
DAV:   6    -0.196835109718E+03   -0.53369E-08   -0.13181E-08  4080   0.880E-04
  55 F= -.19683511E+03 E0= -.19683511E+03  d E =-.876084E-05
       N       E                     dE             d eps       ncg     rms          rms(c)
DAV:   1    -0.196835085468E+03    0.24244E-04   -0.10137E-02  5952   0.543E-01    0.195E-02
DAV:   2    -0.196835118898E+03   -0.33430E-04   -0.36043E-04  8408   0.101E-01    0.133E-02
DAV:   3    -0.196835118219E+03    0.67827E-06   -0.48584E-06  8824   0.172E-02    0.760E-03
DAV:   4    -0.196835117606E+03    0.61328E-06   -0.98067E-07  8408   0.572E-03    0.350E-03
DAV:   5    -0.196835117498E+03    0.10808E-06   -0.48489E-07  9000   0.399E-03    0.126E-03
DAV:   6    -0.196835117506E+03   -0.76288E-08   -0.33827E-08  5336   0.152E-03
  56 F= -.19683512E+03 E0= -.19683512E+03  d E =-.778827E-05
