NbOF2.5(OH)0.5_W1_VASP_PBE_DFT-D3_APO   
           1
     8.099730    0.000000    0.000000
     0.000000    5.439130    0.000000
    -1.575373    0.000000    7.330788
   Na   Ta   O    F 
     4     4     8     8
Direct configuration=     1
   0.37670001  0.79320002  0.10920000
   0.62329996  0.20679998  0.89080000
   0.62329996  0.29320002  0.39080000
   0.37670001  0.70679998  0.60920000
   0.15807000  0.25979999  0.29815999
   0.84193003  0.74020004  0.70184004
   0.84193003  0.75979996  0.20184001
   0.15807000  0.24020001  0.79815996
   0.19850001  0.15430000  0.05330000
   0.80149996  0.84570003  0.94669998
   0.80149996  0.65429997  0.44670001
   0.19850001  0.34570000  0.55330002
   0.03670000  0.55919999  0.21630000
   0.96329999  0.44080001  0.78369999
   0.96329999  0.05919999  0.28369999
   0.03670000  0.94080001  0.71630001
   0.37639999  0.47189999  0.30370000
   0.62360001  0.52810001  0.69630003
   0.62360001  0.97189999  0.19630000
   0.37639999  0.02810001  0.80369997
   0.33039999  0.98229998  0.37670001
   0.66960001  0.01770002  0.62329996
   0.66960001  0.48229998  0.12329999
   0.33039999  0.51770002  0.87670004
Direct configuration=     2
   0.37644408  0.79222784  0.10870512
   0.62355589  0.20777216  0.89129488
   0.62355589  0.29222784  0.39129488
   0.37644408  0.70777216  0.60870512
   0.16743117  0.26001365  0.29975679
   0.83256886  0.73998638  0.70024324
   0.83256886  0.76001362  0.20024321
   0.16743117  0.23998635  0.79975676
   0.19470723  0.15851269  0.05315617
   0.80529274  0.84148734  0.94684381
   0.80529274  0.65851266  0.44684384
   0.19470723  0.34148731  0.55315619
   0.03556024  0.55830579  0.21488683
   0.96443975  0.44169421  0.78511316
   0.96443975  0.05830579  0.28511316
   0.03556024  0.94169421  0.71488684
   0.37257052  0.46959528  0.30401629
   0.62742948  0.53040472  0.69598374
   0.62742948  0.96959528  0.19598371
   0.37257052  0.03040472  0.80401626
   0.32671927  0.98627029  0.37605073
   0.67328073  0.01372971  0.62394924
   0.67328073  0.48627029  0.12394927
   0.32671927  0.51372971  0.87605076
Direct configuration=     3
   0.37658360  0.79275780  0.10897489
   0.62341637  0.20724220  0.89102511
   0.62341637  0.29275780  0.39102511
   0.37658360  0.70724220  0.60897489
   0.16232811  0.25989718  0.29888632
   0.83767192  0.74010285  0.70111371
   0.83767192  0.75989715  0.20111368
   0.16232811  0.24010282  0.79888629
   0.19677479  0.15621623  0.05323458
   0.80322518  0.84378380  0.94676540
   0.80322518  0.65621620  0.44676543
   0.19677479  0.34378377  0.55323460
   0.03618156  0.55879324  0.21565719
   0.96381843  0.44120676  0.78434280
   0.96381843  0.05879324  0.28434280
   0.03618156  0.94120676  0.71565720
   0.37465808  0.47085164  0.30384387
   0.62534192  0.52914836  0.69615616
   0.62534192  0.97085164  0.19615613
   0.37465808  0.02914836  0.80384384
   0.32872574  0.98410596  0.37640467
   0.67127426  0.01589404  0.62359530
   0.67127426  0.48410596  0.12359533
   0.32872574  0.51589404  0.87640470
Direct configuration=     4
   0.37571789  0.79190828  0.10837738
   0.62428208  0.20809172  0.89162262
   0.62428208  0.29190828  0.39162262
   0.37571789  0.70809172  0.60837738
   0.16129445  0.26148879  0.29773991
   0.83870558  0.73851124  0.70226012
   0.83870558  0.76148876  0.20226009
   0.16129445  0.23851121  0.79773988
   0.19482942  0.15899209  0.05369131
   0.80517055  0.84100794  0.94630867
   0.80517055  0.65899206  0.44630870
   0.19482942  0.34100791  0.55369133
   0.03409296  0.55763808  0.21496630
   0.96590703  0.44236192  0.78503368
   0.96590703  0.05763808  0.28503368
   0.03409296  0.94236192  0.71496632
   0.37328865  0.47014096  0.30443475
   0.62671135  0.52985904  0.69556528
   0.62671135  0.97014096  0.19556525
   0.37328865  0.02985904  0.80443472
   0.32750973  0.98520210  0.37665224
   0.67249027  0.01479790  0.62334773
   0.67249027  0.48520210  0.12334776
   0.32750973  0.51479790  0.87665227
Direct configuration=     5
   0.37480476  0.79101224  0.10774713
   0.62519521  0.20898776  0.89225287
   0.62519521  0.29101224  0.39225287
   0.37480476  0.70898776  0.60774713
   0.16020418  0.26316757  0.29653070
   0.83979585  0.73683246  0.70346933
   0.83979585  0.76316754  0.20346930
   0.16020418  0.23683243  0.79653067
   0.19277750  0.16191999  0.05417305
   0.80722247  0.83808004  0.94582693
   0.80722247  0.66191996  0.44582696
   0.19277750  0.33808001  0.55417307
   0.03188996  0.55641964  0.21423757
   0.96811002  0.44358036  0.78576241
   0.96811002  0.05641964  0.28576241
   0.03188996  0.94358036  0.71423759
   0.37184421  0.46939135  0.30505800
   0.62815579  0.53060865  0.69494203
   0.62815579  0.96939135  0.19494200
   0.37184421  0.03060865  0.80505797
   0.32622711  0.98635828  0.37691337
   0.67377289  0.01364172  0.62308660
   0.67377289  0.48635828  0.12308663
   0.32622711  0.51364172  0.87691340
Direct configuration=     6
   0.37399087  0.79053425  0.10736347
   0.62600910  0.20946575  0.89263653
   0.62600910  0.29053425  0.39263653
   0.37399087  0.70946575  0.60736347
   0.15968964  0.26345543  0.29636494
   0.84031039  0.73654460  0.70363509
   0.84031039  0.76345540  0.20363506
   0.15968964  0.23654457  0.79636491
   0.19150136  0.16235830  0.05352929
   0.80849861  0.83764173  0.94647069
   0.80849861  0.66235827  0.44647072
   0.19150136  0.33764170  0.55352931
   0.03204976  0.55485687  0.21377845
   0.96795023  0.44514313  0.78622154
   0.96795023  0.05485687  0.28622154
   0.03204976  0.94514313  0.71377846
   0.37258097  0.47081242  0.30629951
   0.62741903  0.52918758  0.69370052
   0.62741903  0.97081242  0.19370049
   0.37258097  0.02918758  0.80629948
   0.32599753  0.98620376  0.37716708
   0.67400247  0.01379624  0.62283289
   0.67400247  0.48620376  0.12283292
   0.32599753  0.51379624  0.87716711
Direct configuration=     7
   0.37358087  0.79029347  0.10717021
   0.62641910  0.20970653  0.89282979
   0.62641910  0.29029347  0.39282979
   0.37358087  0.70970653  0.60717021
   0.15943045  0.26360044  0.29628144
   0.84056958  0.73639959  0.70371859
   0.84056958  0.76360041  0.20371856
   0.15943045  0.23639956  0.79628141
   0.19085850  0.16257909  0.05320500
   0.80914147  0.83742094  0.94679498
   0.80914147  0.66257906  0.44679501
   0.19085850  0.33742091  0.55320502
   0.03213026  0.55406963  0.21354716
   0.96786973  0.44593037  0.78645282
   0.96786973  0.05406963  0.28645282
   0.03213026  0.94593037  0.71354718
   0.37295211  0.47152828  0.30692491
   0.62704789  0.52847172  0.69307512
   0.62704789  0.97152828  0.19307509
   0.37295211  0.02847172  0.80692488
   0.32588188  0.98612592  0.37729488
   0.67411812  0.01387408  0.62270509
   0.67411812  0.48612592  0.12270512
   0.32588188  0.51387408  0.87729491
Direct configuration=     8
   0.37290209  0.78998512  0.10687606
   0.62709788  0.21001488  0.89312394
   0.62709788  0.28998512  0.39312394
   0.37290209  0.71001488  0.60687606
   0.16015162  0.26301237  0.29640108
   0.83984841  0.73698766  0.70359895
   0.83984841  0.76301234  0.20359892
   0.16015162  0.23698763  0.79640105
   0.18977403  0.16254539  0.05290742
   0.81022594  0.83745464  0.94709255
   0.81022594  0.66254536  0.44709258
   0.18977403  0.33745461  0.55290745
   0.03199323  0.55359372  0.21291462
   0.96800676  0.44640628  0.78708537
   0.96800676  0.05359372  0.28708537
   0.03199323  0.94640628  0.71291463
   0.37325828  0.47237916  0.30812817
   0.62674172  0.52762084  0.69187186
   0.62674172  0.97237916  0.19187183
   0.37325828  0.02762084  0.80812814
   0.32558967  0.98618643  0.37728215
   0.67441033  0.01381357  0.62271782
   0.67441033  0.48618643  0.12271785
   0.32558967  0.51381357  0.87728218
Direct configuration=     9
   0.37276522  0.78992294  0.10681675
   0.62723475  0.21007706  0.89318325
   0.62723475  0.28992294  0.39318325
   0.37276522  0.71007706  0.60681675
   0.16029704  0.26289379  0.29642521
   0.83970299  0.73710624  0.70357482
   0.83970299  0.76289376  0.20357479
   0.16029704  0.23710621  0.79642518
   0.18955535  0.16253859  0.05284742
   0.81044462  0.83746144  0.94715256
   0.81044462  0.66253856  0.44715259
   0.18955535  0.33746141  0.55284744
   0.03196560  0.55349775  0.21278706
   0.96803439  0.44650225  0.78721292
   0.96803439  0.05349775  0.28721292
   0.03196560  0.94650225  0.71278708
   0.37332002  0.47255074  0.30837081
   0.62667998  0.52744926  0.69162922
   0.62667998  0.97255074  0.19162919
   0.37332002  0.02744926  0.80837078
   0.32553075  0.98619864  0.37727959
   0.67446925  0.01380136  0.62272038
   0.67446925  0.48619864  0.12272041
   0.32553075  0.51380136  0.87727962
Direct configuration=    10
   0.37220117  0.78981825  0.10661842
   0.62779880  0.21018175  0.89338158
   0.62779880  0.28981825  0.39338158
   0.37220117  0.71018175  0.60661842
   0.16008942  0.26247409  0.29620545
   0.83991061  0.73752594  0.70379458
   0.83991061  0.76247406  0.20379455
   0.16008942  0.23752591  0.79620542
   0.18910678  0.16207569  0.05302738
   0.81089319  0.83792434  0.94697260
   0.81089319  0.66207566  0.44697263
   0.18910678  0.33792431  0.55302740
   0.03156764  0.55358869  0.21231043
   0.96843235  0.44641131  0.78768956
   0.96843235  0.05358869  0.28768956
   0.03156764  0.94641131  0.71231044
   0.37341418  0.47281369  0.30931769
   0.62658582  0.52718631  0.69068234
   0.62658582  0.97281369  0.19068231
   0.37341418  0.02718631  0.80931766
   0.32559689  0.98606000  0.37721385
   0.67440311  0.01394000  0.62278612
   0.67440311  0.48606000  0.12278615
   0.32559689  0.51394000  0.87721388
Direct configuration=    11
   0.37165298  0.78971650  0.10642566
   0.62834699  0.21028350  0.89357434
   0.62834699  0.28971650  0.39357434
   0.37165298  0.71028350  0.60642566
   0.15988764  0.26206619  0.29599188
   0.84011239  0.73793384  0.70400815
   0.84011239  0.76206616  0.20400812
   0.15988764  0.23793381  0.79599185
   0.18867082  0.16162581  0.05320229
   0.81132915  0.83837422  0.94679769
   0.81132915  0.66162578  0.44679772
   0.18867082  0.33837419  0.55320231
   0.03118086  0.55367706  0.21184719
   0.96881913  0.44632294  0.78815279
   0.96881913  0.05367706  0.28815279
   0.03118086  0.94632294  0.71184721
   0.37350569  0.47306926  0.31023796
   0.62649431  0.52693074  0.68976207
   0.62649431  0.97306926  0.18976204
   0.37350569  0.02693074  0.81023793
   0.32566116  0.98592526  0.37714996
   0.67433884  0.01407474  0.62285001
   0.67433884  0.48592526  0.12285004
   0.32566116  0.51407474  0.87714999
Direct configuration=    12
   0.37118378  0.78975817  0.10631353
   0.62881619  0.21024183  0.89368647
   0.62881619  0.28975817  0.39368647
   0.37118378  0.71024183  0.60631353
   0.15985833  0.26237770  0.29584998
   0.84014170  0.73762233  0.70415005
   0.84014170  0.76237767  0.20415002
   0.15985833  0.23762230  0.79584995
   0.18849986  0.16112061  0.05335194
   0.81150011  0.83887942  0.94664804
   0.81150011  0.66112058  0.44664807
   0.18849986  0.33887939  0.55335196
   0.03126490  0.55330707  0.21150793
   0.96873509  0.44669293  0.78849205
   0.96873509  0.05330707  0.28849205
   0.03126490  0.94669293  0.71150795
   0.37325045  0.47282645  0.31101258
   0.62674955  0.52717355  0.68898745
   0.62674955  0.97282645  0.18898742
   0.37325045  0.02717355  0.81101255
   0.32579538  0.98598086  0.37709752
   0.67420462  0.01401914  0.62290245
   0.67420462  0.48598086  0.12290248
   0.32579538  0.51401914  0.87709755
Direct configuration=    13
   0.37070907  0.78980033  0.10620008
   0.62929090  0.21019967  0.89379992
   0.62929090  0.28980033  0.39379992
   0.37070907  0.71019967  0.60620008
   0.15982868  0.26269286  0.29570642
   0.84017135  0.73730717  0.70429361
   0.84017135  0.76269283  0.20429358
   0.15982868  0.23730714  0.79570639
   0.18832690  0.16060948  0.05350335
   0.81167307  0.83939055  0.94649663
   0.81167307  0.66060945  0.44649666
   0.18832690  0.33939052  0.55350337
   0.03134993  0.55293274  0.21116469
   0.96865006  0.44706726  0.78883529
   0.96865006  0.05293274  0.28883529
   0.03134993  0.94706726  0.71116471
   0.37299222  0.47258080  0.31179630
   0.62700778  0.52741920  0.68820373
   0.62700778  0.97258080  0.18820370
   0.37299222  0.02741920  0.81179627
   0.32593117  0.98603710  0.37704446
   0.67406883  0.01396290  0.62295551
   0.67406883  0.48603710  0.12295554
   0.32593117  0.51396290  0.87704449
Direct configuration=    14
   0.37066329  0.78980439  0.10618914
   0.62933668  0.21019561  0.89381086
   0.62933668  0.28980439  0.39381086
   0.37066329  0.71019561  0.60618914
   0.15982582  0.26272325  0.29569258
   0.84017421  0.73727678  0.70430745
   0.84017421  0.76272322  0.20430742
   0.15982582  0.23727675  0.79569255
   0.18831022  0.16056019  0.05351795
   0.81168975  0.83943984  0.94648203
   0.81168975  0.66056016  0.44648206
   0.18831022  0.33943981  0.55351797
   0.03135813  0.55289665  0.21113160
   0.96864186  0.44710335  0.78886839
   0.96864186  0.05289665  0.28886839
   0.03135813  0.94710335  0.71113161
   0.37296731  0.47255711  0.31187187
   0.62703269  0.52744289  0.68812816
   0.62703269  0.97255711  0.18812813
   0.37296731  0.02744289  0.81187184
   0.32594426  0.98604253  0.37703934
   0.67405574  0.01395747  0.62296063
   0.67405574  0.48604253  0.12296066
   0.32594426  0.51395747  0.87703937
Direct configuration=    15
   0.37044010  0.78988580  0.10624061
   0.62955987  0.21011420  0.89375939
   0.62955987  0.28988580  0.39375939
   0.37044010  0.71011420  0.60624061
   0.15979019  0.26255712  0.29587284
   0.84020984  0.73744291  0.70412719
   0.84020984  0.76255709  0.20412716
   0.15979019  0.23744288  0.79587281
   0.18827962  0.16050490  0.05343316
   0.81172035  0.83949513  0.94656682
   0.81172035  0.66050487  0.44656685
   0.18827962  0.33949510  0.55343318
   0.03136063  0.55291405  0.21084051
   0.96863936  0.44708595  0.78915947
   0.96863936  0.05291405  0.28915947
   0.03136063  0.94708595  0.71084053
   0.37292317  0.47231276  0.31216592
   0.62707683  0.52768724  0.68783411
   0.62707683  0.97231276  0.18783408
   0.37292317  0.02768724  0.81216589
   0.32600431  0.98633331  0.37708836
   0.67399569  0.01366669  0.62291161
   0.67399569  0.48633331  0.12291164
   0.32600431  0.51366669  0.87708839
Direct configuration=    16
   0.37024904  0.78995549  0.10628467
   0.62975093  0.21004451  0.89371533
   0.62975093  0.28995549  0.39371533
   0.37024904  0.71004451  0.60628467
   0.15975969  0.26241492  0.29602714
   0.84024034  0.73758511  0.70397289
   0.84024034  0.76241489  0.20397286
   0.15975969  0.23758508  0.79602711
   0.18825342  0.16045758  0.05336057
   0.81174655  0.83954245  0.94663941
   0.81174655  0.66045755  0.44663944
   0.18825342  0.33954242  0.55336059
   0.03136277  0.55292895  0.21059134
   0.96863722  0.44707105  0.78940865
   0.96863722  0.05292895  0.28940865
   0.03136277  0.94707105  0.71059135
   0.37288538  0.47210358  0.31241764
   0.62711462  0.52789642  0.68758239
   0.62711462  0.97210358  0.18758236
   0.37288538  0.02789642  0.81241761
   0.32605571  0.98658223  0.37713032
   0.67394429  0.01341777  0.62286965
   0.67394429  0.48658223  0.12286968
   0.32605571  0.51341777  0.87713035
Direct configuration=    17
   0.37006727  0.79002745  0.10642115
   0.62993270  0.20997255  0.89357885
   0.62993270  0.29002745  0.39357885
   0.37006727  0.70997255  0.60642115
   0.15951048  0.26233884  0.29614880
   0.84048955  0.73766119  0.70385123
   0.84048955  0.76233881  0.20385120
   0.15951048  0.23766116  0.79614877
   0.18820806  0.16046988  0.05347616
   0.81179191  0.83953015  0.94652382
   0.81179191  0.66046985  0.44652385
   0.18820806  0.33953012  0.55347618
   0.03145298  0.55286167  0.21035241
   0.96854700  0.44713833  0.78964757
   0.96854700  0.05286167  0.28964757
   0.03145298  0.94713833  0.71035243
   0.37303635  0.47195976  0.31251692
   0.62696365  0.52804024  0.68748311
   0.62696365  0.97195976  0.18748308
   0.37303635  0.02804024  0.81251689
   0.32620060  0.98672777  0.37725814
   0.67379940  0.01327223  0.62274183
   0.67379940  0.48672777  0.12274186
   0.32620060  0.51327223  0.87725817
Direct configuration=    18
   0.37009492  0.79001651  0.10640039
   0.62990505  0.20998349  0.89359961
   0.62990505  0.29001651  0.39359961
   0.37009492  0.70998349  0.60640039
   0.15954839  0.26235041  0.29613029
   0.84045164  0.73764962  0.70386974
   0.84045164  0.76235038  0.20386971
   0.15954839  0.23764959  0.79613026
   0.18821496  0.16046801  0.05345858
   0.81178501  0.83953202  0.94654140
   0.81178501  0.66046798  0.44654143
   0.18821496  0.33953199  0.55345860
   0.03143926  0.55287191  0.21038875
   0.96856073  0.44712809  0.78961123
   0.96856073  0.05287191  0.28961123
   0.03143926  0.94712809  0.71038877
   0.37301338  0.47198164  0.31250182
   0.62698662  0.52801836  0.68749821
   0.62698662  0.97198164  0.18749818
   0.37301338  0.02801836  0.81250179
   0.32617856  0.98670563  0.37723870
   0.67382144  0.01329437  0.62276127
   0.67382144  0.48670563  0.12276130
   0.32617856  0.51329437  0.87723873
Direct configuration=    19
   0.36998388  0.79006181  0.10654543
   0.63001609  0.20993819  0.89345457
   0.63001609  0.29006181  0.39345457
   0.36998388  0.70993819  0.60654543
   0.15957971  0.26230270  0.29628904
   0.84042032  0.73769733  0.70371099
   0.84042032  0.76230267  0.20371096
   0.15957971  0.23769730  0.79628901
   0.18812244  0.16048230  0.05359992
   0.81187753  0.83951773  0.94640006
   0.81187753  0.66048227  0.44640009
   0.18812244  0.33951770  0.55359994
   0.03154670  0.55282381  0.21021333
   0.96845329  0.44717619  0.78978666
   0.96845329  0.05282381  0.28978666
   0.03154670  0.94717619  0.71021334
   0.37309288  0.47184123  0.31251014
   0.62690712  0.52815877  0.68748989
   0.62690712  0.97184123  0.18748986
   0.37309288  0.02815877  0.81251011
   0.32625834  0.98681237  0.37734611
   0.67374166  0.01318763  0.62265386
   0.67374166  0.48681237  0.12265389
   0.32625834  0.51318763  0.87734614
Direct configuration=    20
   0.36985209  0.79011557  0.10671757
   0.63014788  0.20988443  0.89328243
   0.63014788  0.29011557  0.39328243
   0.36985209  0.70988443  0.60671757
   0.15961688  0.26224609  0.29647743
   0.84038315  0.73775394  0.70352260
   0.84038315  0.76224606  0.20352257
   0.15961688  0.23775391  0.79647740
   0.18801264  0.16049925  0.05376766
   0.81198733  0.83950078  0.94623232
   0.81198733  0.66049922  0.44623235
   0.18801264  0.33950075  0.55376768
   0.03167419  0.55276672  0.21000514
   0.96832580  0.44723328  0.78999484
   0.96832580  0.05276672  0.28999484
   0.03167419  0.94723328  0.71000516
   0.37318722  0.47167460  0.31252003
   0.62681278  0.52832540  0.68748000
   0.62681278  0.97167460  0.18747997
   0.37318722  0.02832540  0.81252000
   0.32635302  0.98693903  0.37747359
   0.67364698  0.01306097  0.62252638
   0.67364698  0.48693903  0.12252641
   0.32635302  0.51306097  0.87747362
Direct configuration=    21
   0.36979348  0.79011570  0.10685106
   0.63020649  0.20988430  0.89314894
   0.63020649  0.29011570  0.39314894
   0.36979348  0.70988430  0.60685106
   0.15961685  0.26227766  0.29662241
   0.84038318  0.73772237  0.70337762
   0.84038318  0.76227763  0.20337759
   0.15961685  0.23772234  0.79662238
   0.18792070  0.16039208  0.05382699
   0.81207927  0.83960795  0.94617299
   0.81207927  0.66039205  0.44617302
   0.18792070  0.33960792  0.55382701
   0.03166565  0.55282804  0.20996771
   0.96833434  0.44717196  0.79003227
   0.96833434  0.05282804  0.29003227
   0.03166565  0.94717196  0.70996773
   0.37316512  0.47153884  0.31250156
   0.62683488  0.52846116  0.68749847
   0.62683488  0.97153884  0.18749844
   0.37316512  0.02846116  0.81250153
   0.32637868  0.98692716  0.37759131
   0.67362132  0.01307284  0.62240866
   0.67362132  0.48692716  0.12240869
   0.32637868  0.51307284  0.87759134
Direct configuration=    22
   0.36968167  0.79011594  0.10710574
   0.63031830  0.20988406  0.89289426
   0.63031830  0.29011594  0.39289426
   0.36968167  0.70988406  0.60710574
   0.15961677  0.26233790  0.29689901
   0.84038326  0.73766213  0.70310102
   0.84038326  0.76233787  0.20310099
   0.15961677  0.23766210  0.79689898
   0.18774531  0.16018762  0.05394019
   0.81225466  0.83981241  0.94605979
   0.81225466  0.66018759  0.44605982
   0.18774531  0.33981238  0.55394021
   0.03164936  0.55294501  0.20989630
   0.96835063  0.44705499  0.79010368
   0.96835063  0.05294501  0.29010368
   0.03164936  0.94705499  0.70989632
   0.37312296  0.47127985  0.31246631
   0.62687704  0.52872015  0.68753372
   0.62687704  0.97127985  0.18753369
   0.37312296  0.02872015  0.81246628
   0.32642762  0.98690449  0.37781589
   0.67357238  0.01309551  0.62218408
   0.67357238  0.48690449  0.12218411
   0.32642762  0.51309551  0.87781592
Direct configuration=    23
   0.36945804  0.79011643  0.10761510
   0.63054193  0.20988357  0.89238490
   0.63054193  0.29011643  0.39238490
   0.36945804  0.70988357  0.60761510
   0.15961662  0.26245837  0.29745219
   0.84038341  0.73754166  0.70254784
   0.84038341  0.76245834  0.20254781
   0.15961662  0.23754163  0.79745216
   0.18739453  0.15977871  0.05416659
   0.81260544  0.84022132  0.94583338
   0.81260544  0.65977868  0.44583341
   0.18739453  0.34022129  0.55416662
   0.03161678  0.55317897  0.20975348
   0.96838321  0.44682103  0.79024650
   0.96838321  0.05317897  0.29024650
   0.03161678  0.94682103  0.70975350
   0.37303863  0.47076186  0.31239583
   0.62696137  0.52923814  0.68760420
   0.62696137  0.97076186  0.18760417
   0.37303863  0.02923814  0.81239580
   0.32652552  0.98685917  0.37826505
   0.67347448  0.01314083  0.62173492
   0.67347448  0.48685917  0.12173495
   0.32652552  0.51314083  0.87826508
Direct configuration=    24
   0.36956976  0.79011618  0.10736063
   0.63043021  0.20988382  0.89263937
   0.63043021  0.29011618  0.39263937
   0.36956976  0.70988382  0.60736063
   0.15961669  0.26239818  0.29717583
   0.84038334  0.73760185  0.70282420
   0.84038334  0.76239815  0.20282417
   0.15961669  0.23760182  0.79717580
   0.18756978  0.15998299  0.05405349
   0.81243019  0.84001704  0.94594649
   0.81243019  0.65998296  0.44594652
   0.18756978  0.34001701  0.55405351
   0.03163305  0.55306209  0.20982483
   0.96836693  0.44693791  0.79017515
   0.96836693  0.05306209  0.29017515
   0.03163305  0.94693791  0.70982485
   0.37308076  0.47102064  0.31243104
   0.62691924  0.52897936  0.68756899
   0.62691924  0.97102064  0.18756896
   0.37308076  0.02897936  0.81243101
   0.32647661  0.98688182  0.37804066
   0.67352339  0.01311818  0.62195931
   0.67352339  0.48688182  0.12195934
   0.32647661  0.51311818  0.87804069
Direct configuration=    25
   0.36952631  0.79010770  0.10747419
   0.63047366  0.20989230  0.89252581
   0.63047366  0.29010770  0.39252581
   0.36952631  0.70989230  0.60747419
   0.15955608  0.26244864  0.29727349
   0.84044395  0.73755139  0.70272654
   0.84044395  0.76244861  0.20272651
   0.15955608  0.23755136  0.79727346
   0.18750872  0.15986169  0.05409195
   0.81249125  0.84013834  0.94590803
   0.81249125  0.65986166  0.44590806
   0.18750872  0.34013831  0.55409197
   0.03166247  0.55304642  0.20983810
   0.96833752  0.44695358  0.79016188
   0.96833752  0.05304642  0.29016188
   0.03166247  0.94695358  0.70983812
   0.37308819  0.47094622  0.31242240
   0.62691181  0.52905378  0.68757763
   0.62691181  0.97094622  0.18757760
   0.37308819  0.02905378  0.81242237
   0.32645674  0.98688189  0.37813112
   0.67354326  0.01311811  0.62186885
   0.67354326  0.48688189  0.12186888
   0.32645674  0.51311811  0.87813115
Direct configuration=    26
   0.36941658  0.79008628  0.10776100
   0.63058339  0.20991372  0.89223900
   0.63058339  0.29008628  0.39223900
   0.36941658  0.70991372  0.60776100
   0.15940296  0.26257607  0.29752015
   0.84059707  0.73742396  0.70247988
   0.84059707  0.76257604  0.20247985
   0.15940296  0.23742393  0.79752012
   0.18735449  0.15955531  0.05418910
   0.81264548  0.84044472  0.94581088
   0.81264548  0.65955528  0.44581091
   0.18735449  0.34044469  0.55418912
   0.03173677  0.55300684  0.20987163
   0.96826322  0.44699316  0.79012835
   0.96826322  0.05300684  0.29012835
   0.03173677  0.94699316  0.70987165
   0.37310695  0.47075825  0.31240056
   0.62689305  0.52924175  0.68759947
   0.62689305  0.97075825  0.18759944
   0.37310695  0.02924175  0.81240053
   0.32640656  0.98688209  0.37835962
   0.67359344  0.01311791  0.62164035
   0.67359344  0.48688209  0.12164038
   0.32640656  0.51311791  0.87835965
Direct configuration=    27
   0.36936966  0.79006436  0.10793046
   0.63063031  0.20993564  0.89206954
   0.63063031  0.29006436  0.39206954
   0.36936966  0.70993564  0.60793046
   0.15942185  0.26259943  0.29767640
   0.84057818  0.73740060  0.70232363
   0.84057818  0.76259940  0.20232360
   0.15942185  0.23740057  0.79767637
   0.18726330  0.15937636  0.05423617
   0.81273667  0.84062367  0.94576381
   0.81273667  0.65937633  0.44576384
   0.18726330  0.34062364  0.55423619
   0.03181636  0.55296162  0.20990350
   0.96818363  0.44703838  0.79009649
   0.96818363  0.05296162  0.29009649
   0.03181636  0.94703838  0.70990351
   0.37312263  0.47067380  0.31239413
   0.62687737  0.52932620  0.68760590
   0.62687737  0.97067380  0.18760587
   0.37312263  0.02932620  0.81239410
   0.32629204  0.98692920  0.37846445
   0.67370796  0.01307080  0.62153552
   0.67370796  0.48692920  0.12153555
   0.32629204  0.51307080  0.87846448
Direct configuration=    28
   0.36931794  0.79004020  0.10811725
   0.63068203  0.20995980  0.89188275
   0.63068203  0.29004020  0.39188275
   0.36931794  0.70995980  0.60811725
   0.15944267  0.26262519  0.29784864
   0.84055736  0.73737484  0.70215139
   0.84055736  0.76262516  0.20215136
   0.15944267  0.23737481  0.79784861
   0.18716278  0.15917911  0.05428805
   0.81283719  0.84082092  0.94571193
   0.81283719  0.65917908  0.44571196
   0.18716278  0.34082089  0.55428807
   0.03190409  0.55291177  0.20993863
   0.96809590  0.44708823  0.79006136
   0.96809590  0.05291177  0.29006136
   0.03190409  0.94708823  0.70993864
   0.37313991  0.47058071  0.31238704
   0.62686009  0.52941929  0.68761299
   0.62686009  0.97058071  0.18761296
   0.37313991  0.02941929  0.81238701
   0.32616581  0.98698112  0.37858000
   0.67383419  0.01301888  0.62141997
   0.67383419  0.48698112  0.12142000
   0.32616581  0.51301888  0.87858003
Direct configuration=    29
   0.36930213  0.79003282  0.10817435
   0.63069784  0.20996718  0.89182565
   0.63069784  0.29003282  0.39182565
   0.36930213  0.70996718  0.60817435
   0.15944903  0.26263306  0.29790129
   0.84055100  0.73736697  0.70209874
   0.84055100  0.76263303  0.20209871
   0.15944903  0.23736694  0.79790126
   0.18713205  0.15911881  0.05430391
   0.81286792  0.84088122  0.94569607
   0.81286792  0.65911878  0.44569610
   0.18713205  0.34088119  0.55430393
   0.03193091  0.55289653  0.20994937
   0.96806908  0.44710347  0.79005062
   0.96806908  0.05289653  0.29005062
   0.03193091  0.94710347  0.70994938
   0.37314519  0.47055225  0.31238488
   0.62685481  0.52944775  0.68761515
   0.62685481  0.97055225  0.18761512
   0.37314519  0.02944775  0.81238485
   0.32612721  0.98699699  0.37861533
   0.67387279  0.01300301  0.62138464
   0.67387279  0.48699699  0.12138467
   0.32612721  0.51300301  0.87861536
Direct configuration=    30
   0.36927337  0.79000910  0.10828962
   0.63072660  0.20999090  0.89171038
   0.63072660  0.29000910  0.39171038
   0.36927337  0.70999090  0.60828962
   0.15941775  0.26257736  0.29797168
   0.84058228  0.73742267  0.70202835
   0.84058228  0.76257733  0.20202832
   0.15941775  0.23742264  0.79797165
   0.18708999  0.15902137  0.05434751
   0.81290998  0.84097866  0.94565246
   0.81290998  0.65902134  0.44565249
   0.18708999  0.34097863  0.55434754
   0.03194985  0.55294959  0.20995000
   0.96805014  0.44705041  0.79004998
   0.96805014  0.05294959  0.29004998
   0.03194985  0.94705041  0.70995002
   0.37319050  0.47051750  0.31240093
   0.62680950  0.52948250  0.68759910
   0.62680950  0.97051750  0.18759907
   0.37319050  0.02948250  0.81240090
   0.32602671  0.98697884  0.37871179
   0.67397329  0.01302116  0.62128818
   0.67397329  0.48697884  0.12128821
   0.32602671  0.51302116  0.87871182
Direct configuration=    31
   0.36921943  0.78996461  0.10850585
   0.63078054  0.21003539  0.89149415
   0.63078054  0.28996461  0.39149415
   0.36921943  0.71003539  0.60850585
   0.15935906  0.26247287  0.29810373
   0.84064097  0.73752716  0.70189630
   0.84064097  0.76247284  0.20189627
   0.15935906  0.23752713  0.79810370
   0.18701111  0.15883859  0.05442931
   0.81298886  0.84116144  0.94557067
   0.81298886  0.65883856  0.44557070
   0.18701111  0.34116141  0.55442933
   0.03198539  0.55304912  0.20995119
   0.96801460  0.44695088  0.79004879
   0.96801460  0.05304912  0.29004879
   0.03198539  0.94695088  0.70995121
   0.37327549  0.47045230  0.31243104
   0.62672451  0.52954770  0.68756899
   0.62672451  0.97045230  0.18756896
   0.37327549  0.02954770  0.81243101
   0.32583817  0.98694478  0.37889275
   0.67416183  0.01305522  0.62110722
   0.67416183  0.48694478  0.12110725
   0.32583817  0.51305522  0.87889278
Direct configuration=    32
   0.36919779  0.78994791  0.10859991
   0.63080218  0.21005209  0.89140009
   0.63080218  0.28994791  0.39140009
   0.36919779  0.71005209  0.60859991
   0.15935009  0.26250738  0.29812368
   0.84064994  0.73749265  0.70187635
   0.84064994  0.76250735  0.20187632
   0.15935009  0.23749262  0.79812365
   0.18699983  0.15881917  0.05446721
   0.81300014  0.84118086  0.94553277
   0.81300014  0.65881914  0.44553280
   0.18699983  0.34118083  0.55446723
   0.03203293  0.55311974  0.20992479
   0.96796706  0.44688026  0.79007519
   0.96796706  0.05311974  0.29007519
   0.03203293  0.94688026  0.70992481