  24  24   0   0
  0.1345023E+02  0.8002600E-09  0.5407180E-09  0.7624290E-09  0.5000000E-15
   1.0000000000000000E-004
  CAR 
 unknown system                          
     13.25346495    -56.59312936  301      1.20492743      1.00000000
    -56.593  0.0000E+00  0.0000E+00
    -56.360  0.0000E+00  0.0000E+00
    -56.127  0.0000E+00  0.0000E+00
    -55.895  0.0000E+00  0.0000E+00
    -55.662  0.0000E+00  0.0000E+00
    -55.429  0.0000E+00  0.0000E+00
    -55.196  0.0000E+00  0.0000E+00
    -54.963  0.0000E+00  0.0000E+00
    -54.731  0.0000E+00  0.0000E+00
    -54.498  0.0000E+00  0.0000E+00
    -54.265  0.0000E+00  0.0000E+00
    -54.032  0.0000E+00  0.0000E+00
    -53.799  0.0000E+00  0.0000E+00
    -53.566  0.0000E+00  0.0000E+00
    -53.334  0.2148E+02  0.8000E+01
    -53.101  0.0000E+00  0.8000E+01
    -52.868  0.0000E+00  0.8000E+01
    -52.635  0.0000E+00  0.8000E+01
    -52.402  0.0000E+00  0.8000E+01
    -52.170  0.0000E+00  0.8000E+01
    -51.937  0.0000E+00  0.8000E+01
    -51.704  0.0000E+00  0.8000E+01
    -51.471  0.0000E+00  0.8000E+01
    -51.238  0.0000E+00  0.8000E+01
    -51.005  0.0000E+00  0.8000E+01
    -50.773  0.0000E+00  0.8000E+01
    -50.540  0.0000E+00  0.8000E+01
    -50.307  0.0000E+00  0.8000E+01
    -50.074  0.0000E+00  0.8000E+01
    -49.841  0.0000E+00  0.8000E+01
    -49.608  0.0000E+00  0.8000E+01
    -49.376  0.0000E+00  0.8000E+01
    -49.143  0.0000E+00  0.8000E+01
    -48.910  0.0000E+00  0.8000E+01
    -48.677  0.0000E+00  0.8000E+01
    -48.444  0.0000E+00  0.8000E+01
    -48.212  0.0000E+00  0.8000E+01
    -47.979  0.0000E+00  0.8000E+01
    -47.746  0.0000E+00  0.8000E+01
    -47.513  0.0000E+00  0.8000E+01
    -47.280  0.3436E+02  0.1600E+02
    -47.047  0.0000E+00  0.1600E+02
    -46.815  0.0000E+00  0.1600E+02
    -46.582  0.0000E+00  0.1600E+02
    -46.349  0.0000E+00  0.1600E+02
    -46.116  0.0000E+00  0.1600E+02
    -45.883  0.0000E+00  0.1600E+02
    -45.650  0.0000E+00  0.1600E+02
    -45.418  0.0000E+00  0.1600E+02
    -45.185  0.0000E+00  0.1600E+02
    -44.952  0.0000E+00  0.1600E+02
    -44.719  0.0000E+00  0.1600E+02
    -44.486  0.0000E+00  0.1600E+02
    -44.254  0.0000E+00  0.1600E+02
    -44.021  0.0000E+00  0.1600E+02
    -43.788  0.0000E+00  0.1600E+02
    -43.555  0.0000E+00  0.1600E+02
    -43.322  0.0000E+00  0.1600E+02
    -43.089  0.0000E+00  0.1600E+02
    -42.857  0.0000E+00  0.1600E+02
    -42.624  0.0000E+00  0.1600E+02
    -42.391  0.0000E+00  0.1600E+02
    -42.158  0.0000E+00  0.1600E+02
    -41.925  0.0000E+00  0.1600E+02
    -41.693  0.0000E+00  0.1600E+02
    -41.460  0.0000E+00  0.1600E+02
    -41.227  0.0000E+00  0.1600E+02
    -40.994  0.0000E+00  0.1600E+02
    -40.761  0.0000E+00  0.1600E+02
    -40.528  0.0000E+00  0.1600E+02
    -40.296  0.0000E+00  0.1600E+02
    -40.063  0.0000E+00  0.1600E+02
    -39.830  0.0000E+00  0.1600E+02
    -39.597  0.0000E+00  0.1600E+02
    -39.364  0.0000E+00  0.1600E+02
    -39.131  0.0000E+00  0.1600E+02
    -38.899  0.0000E+00  0.1600E+02
    -38.666  0.0000E+00  0.1600E+02
    -38.433  0.0000E+00  0.1600E+02
    -38.200  0.0000E+00  0.1600E+02
    -37.967  0.0000E+00  0.1600E+02
    -37.735  0.0000E+00  0.1600E+02
    -37.502  0.0000E+00  0.1600E+02
    -37.269  0.0000E+00  0.1600E+02
    -37.036  0.0000E+00  0.1600E+02
    -36.803  0.0000E+00  0.1600E+02
    -36.570  0.0000E+00  0.1600E+02
    -36.338  0.0000E+00  0.1600E+02
    -36.105  0.0000E+00  0.1600E+02
    -35.872  0.0000E+00  0.1600E+02
    -35.639  0.0000E+00  0.1600E+02
    -35.406  0.0000E+00  0.1600E+02
    -35.174  0.0000E+00  0.1600E+02
    -34.941  0.0000E+00  0.1600E+02
    -34.708  0.0000E+00  0.1600E+02
    -34.475  0.0000E+00  0.1600E+02
    -34.242  0.0000E+00  0.1600E+02
    -34.009  0.0000E+00  0.1600E+02
    -33.777  0.0000E+00  0.1600E+02
    -33.544  0.0000E+00  0.1600E+02
    -33.311  0.0000E+00  0.1600E+02
    -33.078  0.0000E+00  0.1600E+02
    -32.845  0.0000E+00  0.1600E+02
    -32.612  0.0000E+00  0.1600E+02
    -32.380  0.0000E+00  0.1600E+02
    -32.147  0.0000E+00  0.1600E+02
    -31.914  0.0000E+00  0.1600E+02
    -31.681  0.0000E+00  0.1600E+02
    -31.448  0.0000E+00  0.1600E+02
    -31.216  0.0000E+00  0.1600E+02
    -30.983  0.0000E+00  0.1600E+02
    -30.750  0.0000E+00  0.1600E+02
    -30.517  0.0000E+00  0.1600E+02
    -30.284  0.0000E+00  0.1600E+02
    -30.051  0.0000E+00  0.1600E+02
    -29.819  0.1207E+02  0.1881E+02
    -29.586  0.3428E+02  0.3198E+02
    -29.353  0.8590E+01  0.4000E+02
    -29.120  0.0000E+00  0.4000E+02
    -28.887  0.0000E+00  0.4000E+02
    -28.654  0.0000E+00  0.4000E+02
    -28.422  0.0000E+00  0.4000E+02
    -28.189  0.0000E+00  0.4000E+02
    -27.956  0.0000E+00  0.4000E+02
    -27.723  0.0000E+00  0.4000E+02
    -27.490  0.0000E+00  0.4000E+02
    -27.258  0.0000E+00  0.4000E+02
    -27.025  0.0000E+00  0.4000E+02
    -26.792  0.0000E+00  0.4000E+02
    -26.559  0.0000E+00  0.4000E+02
    -26.326  0.0000E+00  0.4000E+02
    -26.093  0.0000E+00  0.4000E+02
    -25.861  0.0000E+00  0.4000E+02
    -25.628  0.0000E+00  0.4000E+02
    -25.395  0.0000E+00  0.4000E+02
    -25.162  0.0000E+00  0.4000E+02
    -24.929  0.0000E+00  0.4000E+02
    -24.697  0.0000E+00  0.4000E+02
    -24.464  0.0000E+00  0.4000E+02
    -24.231  0.0000E+00  0.4000E+02
    -23.998  0.0000E+00  0.4000E+02
    -23.765  0.0000E+00  0.4000E+02
    -23.532  0.0000E+00  0.4000E+02
    -23.300  0.0000E+00  0.4000E+02
    -23.067  0.0000E+00  0.4000E+02
    -22.834  0.0000E+00  0.4000E+02
    -22.601  0.0000E+00  0.4000E+02
    -22.368  0.0000E+00  0.4000E+02
    -22.135  0.0000E+00  0.4000E+02
    -21.903  0.0000E+00  0.4000E+02
    -21.670  0.0000E+00  0.4000E+02
    -21.437  0.0000E+00  0.4000E+02
    -21.204  0.0000E+00  0.4000E+02
    -20.971  0.0000E+00  0.4000E+02
    -20.739  0.0000E+00  0.4000E+02
    -20.506  0.0000E+00  0.4000E+02
    -20.273  0.2561E+02  0.4613E+02
    -20.040  0.6801E+01  0.5600E+02
    -19.807  0.0000E+00  0.5600E+02
    -19.574  0.0000E+00  0.5600E+02
    -19.342  0.5276E-04  0.5600E+02
    -19.109  0.2693E+02  0.7710E+02
    -18.876  0.0000E+00  0.8000E+02
    -18.643  0.0000E+00  0.8000E+02
    -18.410  0.0000E+00  0.8000E+02
    -18.178  0.0000E+00  0.8000E+02
    -17.945  0.0000E+00  0.8000E+02
    -17.712  0.0000E+00  0.8000E+02
    -17.479  0.0000E+00  0.8000E+02
    -17.246  0.0000E+00  0.8000E+02
    -17.013  0.0000E+00  0.8000E+02
    -16.781  0.0000E+00  0.8000E+02
    -16.548  0.0000E+00  0.8000E+02
    -16.315  0.0000E+00  0.8000E+02
    -16.082  0.0000E+00  0.8000E+02
    -15.849  0.0000E+00  0.8000E+02
    -15.616  0.0000E+00  0.8000E+02
    -15.384  0.0000E+00  0.8000E+02
    -15.151  0.8569E+01  0.8266E+02
    -14.918  0.8426E+01  0.8996E+02
    -14.685  0.6322E+01  0.9147E+02
    -14.452  0.0000E+00  0.9200E+02
    -14.220  0.8590E+01  0.9400E+02
    -13.987  0.1058E-03  0.9400E+02
    -13.754  0.0000E+00  0.9600E+02
    -13.521  0.0000E+00  0.9600E+02
    -13.288  0.0000E+00  0.9600E+02
    -13.055  0.0000E+00  0.9600E+02
    -12.823  0.0000E+00  0.9600E+02
    -12.590  0.0000E+00  0.9600E+02
    -12.357  0.0000E+00  0.9600E+02
    -12.124  0.0000E+00  0.9600E+02
    -11.891  0.0000E+00  0.9600E+02
    -11.658  0.0000E+00  0.9600E+02
    -11.426  0.0000E+00  0.9600E+02
    -11.193  0.0000E+00  0.9600E+02
    -10.960  0.0000E+00  0.9600E+02
    -10.727  0.0000E+00  0.9600E+02
    -10.494  0.0000E+00  0.9600E+02
    -10.262  0.0000E+00  0.9600E+02
    -10.029  0.0000E+00  0.9600E+02
     -9.796  0.0000E+00  0.9600E+02
     -9.563  0.0000E+00  0.9600E+02
     -9.330  0.0000E+00  0.9600E+02
     -9.097  0.0000E+00  0.9600E+02
     -8.865  0.0000E+00  0.9600E+02
     -8.632  0.0000E+00  0.9600E+02
     -8.399  0.0000E+00  0.9600E+02
     -8.166  0.0000E+00  0.9600E+02
     -7.933  0.0000E+00  0.9600E+02
     -7.701  0.0000E+00  0.9600E+02
     -7.468  0.0000E+00  0.9600E+02
     -7.235  0.0000E+00  0.9600E+02
     -7.002  0.0000E+00  0.9600E+02
     -6.769  0.0000E+00  0.9600E+02
     -6.536  0.0000E+00  0.9600E+02
     -6.304  0.0000E+00  0.9600E+02
     -6.071  0.0000E+00  0.9600E+02
     -5.838  0.0000E+00  0.9600E+02
     -5.605  0.0000E+00  0.9600E+02
     -5.372  0.0000E+00  0.9600E+02
     -5.139  0.0000E+00  0.9600E+02
     -4.907  0.0000E+00  0.9600E+02
     -4.674  0.0000E+00  0.9600E+02
     -4.441  0.0000E+00  0.9600E+02
     -4.208  0.0000E+00  0.9600E+02
     -3.975  0.0000E+00  0.9600E+02
     -3.743  0.1179E+02  0.9908E+02
     -3.510  0.3019E+01  0.1019E+03
     -3.277  0.2712E+01  0.1043E+03
     -3.044  0.5401E+01  0.1081E+03
     -2.811  0.3588E+01  0.1124E+03
     -2.578  0.1218E+02  0.1201E+03
     -2.346  0.7426E+01  0.1249E+03
     -2.113  0.6440E+01  0.1299E+03
     -1.880  0.1009E+02  0.1350E+03
     -1.647  0.3642E+01  0.1388E+03
     -1.414  0.7040E+01  0.1417E+03
     -1.181  0.7481E+01  0.1487E+03
     -0.949  0.1125E+02  0.1563E+03
     -0.716  0.1347E+02  0.1641E+03
     -0.483  0.6994E+01  0.1699E+03
     -0.250  0.2506E+01  0.1713E+03
     -0.017  0.4038E+01  0.1729E+03
      0.215  0.2297E+01  0.1757E+03
      0.448  0.4831E+01  0.1811E+03
      0.681  0.9862E+01  0.1853E+03
      0.914  0.5056E-05  0.1880E+03
      1.147  0.0000E+00  0.1920E+03
      1.380  0.0000E+00  0.1920E+03
      1.612  0.0000E+00  0.1920E+03
      1.845  0.0000E+00  0.1920E+03
      2.078  0.0000E+00  0.1920E+03
      2.311  0.0000E+00  0.1920E+03
      2.544  0.0000E+00  0.1920E+03
      2.776  0.0000E+00  0.1920E+03
      3.009  0.0000E+00  0.1920E+03
      3.242  0.0000E+00  0.1920E+03
      3.475  0.0000E+00  0.1920E+03
      3.708  0.0000E+00  0.1920E+03
      3.941  0.0000E+00  0.1920E+03
      4.173  0.0000E+00  0.1920E+03
      4.406  0.2878E+01  0.1943E+03
      4.639  0.2543E+01  0.1959E+03
      4.872  0.1402E+01  0.1987E+03
      5.105  0.2147E+01  0.1993E+03
      5.338  0.3185E+01  0.2021E+03
      5.570  0.2466E+01  0.2040E+03
      5.803  0.1159E+01  0.2069E+03
      6.036  0.2507E+01  0.2090E+03
      6.269  0.1398E+01  0.2110E+03
      6.502  0.7509E+01  0.2147E+03
      6.734  0.0000E+00  0.2160E+03
      6.967  0.0000E+00  0.2160E+03
      7.200  0.0000E+00  0.2160E+03
      7.433  0.7102E+00  0.2162E+03
      7.666  0.1681E-02  0.2162E+03
      7.899  0.3579E+00  0.2166E+03
      8.131  0.1005E+01  0.2172E+03
      8.364  0.4662E+01  0.2190E+03
      8.597  0.1192E+01  0.2213E+03
      8.830  0.2012E+01  0.2233E+03
      9.063  0.1052E+01  0.2242E+03
      9.295  0.3799E+01  0.2263E+03
      9.528  0.2115E+01  0.2279E+03
      9.761  0.6979E+00  0.2290E+03
      9.994  0.8091E+00  0.2297E+03
     10.227  0.0000E+00  0.2300E+03
     10.460  0.0000E+00  0.2300E+03
     10.692  0.0000E+00  0.2300E+03
     10.925  0.0000E+00  0.2300E+03
     11.158  0.0000E+00  0.2300E+03
     11.391  0.0000E+00  0.2300E+03
     11.624  0.0000E+00  0.2300E+03
     11.857  0.0000E+00  0.2300E+03
     12.089  0.0000E+00  0.2300E+03
     12.322  0.0000E+00  0.2300E+03
     12.555  0.0000E+00  0.2300E+03
     12.788  0.0000E+00  0.2300E+03
     13.021  0.0000E+00  0.2300E+03
     13.253  0.0000E+00  0.2300E+03
