       N       E                     dE             d eps       ncg     rms          rms(c)
DAV:   1     0.351136477069E+04    0.35114E+04   -0.10331E+05  5552   0.192E+03
DAV:   2     0.426596083901E+03   -0.30848E+04   -0.28958E+04  5537   0.802E+02
DAV:   3    -0.194317781472E+03   -0.62091E+03   -0.60747E+03  8739   0.357E+02
DAV:   4    -0.230085107735E+03   -0.35767E+02   -0.35563E+02  8560   0.105E+02
DAV:   5    -0.231066974710E+03   -0.98187E+00   -0.97683E+00  8736   0.182E+01    0.498E+01
DAV:   6    -0.182636673157E+03    0.48430E+02   -0.20010E+02  9216   0.827E+01    0.183E+01
DAV:   7    -0.182291053722E+03    0.34562E+00   -0.32280E+01  8024   0.297E+01    0.397E+01
DAV:   8    -0.182680498866E+03   -0.38945E+00   -0.19324E+00  8736   0.792E+00    0.503E+01
DAV:   9    -0.182463542018E+03    0.21696E+00   -0.29373E+00  9120   0.131E+01    0.212E+01
DAV:  10    -0.182077615595E+03    0.38593E+00   -0.62718E-01  9240   0.750E+00    0.241E+01
DAV:  11    -0.182038167461E+03    0.39448E-01   -0.33982E-01  8192   0.231E+00    0.178E+01
DAV:  12    -0.182055596576E+03   -0.17429E-01   -0.15592E-02  8736   0.890E-01    0.158E+01
DAV:  13    -0.182050628014E+03    0.49686E-02   -0.75538E-03  8584   0.547E-01    0.926E+00
DAV:  14    -0.182024524874E+03    0.26103E-01   -0.26447E-02  9096   0.984E-01    0.643E+00
DAV:  15    -0.182017148621E+03    0.73763E-02   -0.12913E-02  9088   0.476E-01    0.405E+00
DAV:  16    -0.182012426096E+03    0.47225E-02   -0.60819E-03  9256   0.373E-01    0.287E+00
DAV:  17    -0.182010731867E+03    0.16942E-02   -0.39753E-03  8928   0.272E-01    0.139E+00
DAV:  18    -0.182010168494E+03    0.56337E-03   -0.16026E-03  9096   0.189E-01    0.568E-01
DAV:  19    -0.182010112428E+03    0.56066E-04   -0.45900E-04  8736   0.103E-01    0.115E-01
DAV:  20    -0.182010111416E+03    0.10116E-05   -0.63190E-05  8488   0.428E-02    0.605E-02
DAV:  21    -0.182010112212E+03   -0.79580E-06   -0.55933E-06  8584   0.130E-02    0.403E-02
DAV:  22    -0.182010111996E+03    0.21633E-06   -0.15397E-06  8952   0.696E-03    0.114E-02
DAV:  23    -0.182010111779E+03    0.21669E-06   -0.43044E-07  7704   0.415E-03    0.219E-02
DAV:  24    -0.182010111759E+03    0.20493E-07   -0.29692E-08  4456   0.116E-03    0.166E-02
DAV:  25    -0.182010111739E+03    0.19623E-07   -0.37515E-08  4904   0.156E-03    0.710E-03
DAV:  26    -0.182010111733E+03    0.57371E-08   -0.34013E-08  4680   0.821E-04
   1 F= -.18201011E+03 E0= -.18201011E+03  d E =-.670901E-88
DAV:   1    -0.535194881201E+04   -0.53519E+04   -0.16441E+00  6710   0.624E+00
DAV:   2    -0.535196380453E+04   -0.14993E-01   -0.14992E-01  7880   0.184E+00
DAV:   3    -0.535196439722E+04   -0.59269E-03   -0.59268E-03  8552   0.379E-01
DAV:   4    -0.535196444585E+04   -0.48630E-04   -0.48629E-04  8592   0.847E-02
DAV:   5    -0.535196445014E+04   -0.42874E-05   -0.42873E-05  8712   0.260E-02
DAV:   6    -0.535196445062E+04   -0.48193E-06   -0.48201E-06  7528   0.704E-03
DAV:   7    -0.535196445067E+04   -0.49529E-07   -0.49496E-07  6096   0.245E-03
DAV:   8    -0.535196445068E+04   -0.61536E-08   -0.59036E-08  5256   0.874E-04
       N       E                     dE             d eps       ncg     rms
RMM:   1    -0.498969184445E+03   -0.49897E+03   -0.27343E+03  5599   0.495E+02
RMM:   2    -0.634071216693E+03   -0.13510E+03   -0.80697E+02  9881   0.689E+01
RMM:   3    -0.656647870104E+03   -0.22577E+02   -0.97209E+01 10822   0.180E+01
RMM:   4    -0.660193050217E+03   -0.35452E+01   -0.13581E+01 11051   0.596E+00
RMM:   5    -0.660738959048E+03   -0.54591E+00   -0.18239E+00 11416   0.209E+00
RMM:   6    -0.660821709553E+03   -0.82751E-01   -0.35761E-01 11132   0.788E-01
RMM:   7    -0.660832410223E+03   -0.10701E-01   -0.35677E-02 11585   0.277E-01
RMM:   8    -0.660833923139E+03   -0.15129E-02   -0.70318E-03 11568   0.108E-01
RMM:   9    -0.660834157431E+03   -0.23429E-03   -0.88065E-04 11699   0.379E-02
RMM:  10    -0.660834197044E+03   -0.39612E-04   -0.19661E-04 10849   0.151E-02
RMM:  11    -0.660834204184E+03   -0.71406E-05   -0.24149E-05  9134   0.541E-03
RMM:  12    -0.660834205306E+03   -0.11218E-05   -0.58254E-06  8002   0.229E-03
RMM:  13    -0.660834205531E+03   -0.22544E-06   -0.83827E-07  6714   0.933E-04
RMM:  14    -0.660834205567E+03   -0.35356E-07   -0.17539E-07  5120   0.465E-04
RMM:  15    -0.660834205574E+03   -0.67678E-08   -0.27836E-08  3933   0.288E-04
DAV:   1    -0.535203098349E+04   -0.53520E+04   -0.30279E-08  4600   0.925E-04
DAV:   2    -0.535203098350E+04   -0.61391E-09   -0.59698E-09  3552   0.591E-04
       N       E                     dE             d eps       ncg     rms
RMM:   1    -0.498991274840E+03   -0.49899E+03   -0.27341E+03  5599   0.495E+02
RMM:   2    -0.634078015968E+03   -0.13509E+03   -0.80669E+02  9878   0.688E+01
RMM:   3    -0.656683636691E+03   -0.22606E+02   -0.97411E+01 10825   0.180E+01
RMM:   4    -0.660219343289E+03   -0.35357E+01   -0.13486E+01 11049   0.595E+00
RMM:   5    -0.660765012275E+03   -0.54567E+00   -0.18333E+00 11399   0.210E+00
RMM:   6    -0.660848412566E+03   -0.83400E-01   -0.36126E-01 11153   0.792E-01
RMM:   7    -0.660859150143E+03   -0.10738E-01   -0.35603E-02 11534   0.278E-01
RMM:   8    -0.660860677123E+03   -0.15270E-02   -0.72128E-03 11602   0.109E-01
RMM:   9    -0.660860915242E+03   -0.23812E-03   -0.88038E-04 11648   0.381E-02
RMM:  10    -0.660860954973E+03   -0.39731E-04   -0.19645E-04 10905   0.151E-02
RMM:  11    -0.660860962154E+03   -0.71804E-05   -0.24254E-05  9133   0.543E-03
RMM:  12    -0.660860963290E+03   -0.11366E-05   -0.59336E-06  8010   0.230E-03
RMM:  13    -0.660860963509E+03   -0.21895E-06   -0.80713E-07  6712   0.925E-04
RMM:  14    -0.660860963544E+03   -0.34622E-07   -0.17356E-07  5126   0.464E-04
RMM:  15    -0.660860963551E+03   -0.66351E-08   -0.27404E-08  3925   0.288E-04
DAV:   1    -0.535208165794E+04   -0.53521E+04   -0.16432E+00  6686   0.624E+00
DAV:   2    -0.535209673397E+04   -0.15076E-01   -0.15076E-01  7872   0.185E+00
DAV:   3    -0.535209732927E+04   -0.59529E-03   -0.59529E-03  8560   0.383E-01
DAV:   4    -0.535209737803E+04   -0.48765E-04   -0.48764E-04  8608   0.849E-02
DAV:   5    -0.535209738227E+04   -0.42369E-05   -0.42369E-05  8720   0.260E-02
DAV:   6    -0.535209738274E+04   -0.46878E-06   -0.46873E-06  7616   0.700E-03
DAV:   7    -0.535209738279E+04   -0.51611E-07   -0.51498E-07  6136   0.250E-03
DAV:   8    -0.535209738280E+04   -0.60645E-08   -0.60900E-08  5296   0.877E-04
       N       E                     dE             d eps       ncg     rms
RMM:   1    -0.499080837250E+03   -0.49908E+03   -0.27350E+03  5600   0.495E+02
RMM:   2    -0.634075058189E+03   -0.13499E+03   -0.80623E+02  9879   0.689E+01
RMM:   3    -0.656707132537E+03   -0.22632E+02   -0.97534E+01 10833   0.180E+01
RMM:   4    -0.660234372491E+03   -0.35272E+01   -0.13403E+01 11043   0.594E+00
RMM:   5    -0.660779806140E+03   -0.54543E+00   -0.18500E+00 11410   0.210E+00
RMM:   6    -0.660863137219E+03   -0.83331E-01   -0.35828E-01 11144   0.791E-01
RMM:   7    -0.660873816247E+03   -0.10679E-01   -0.35784E-02 11569   0.278E-01
RMM:   8    -0.660875327054E+03   -0.15108E-02   -0.70125E-03 11567   0.108E-01
RMM:   9    -0.660875562054E+03   -0.23500E-03   -0.88386E-04 11671   0.382E-02
RMM:  10    -0.660875601839E+03   -0.39786E-04   -0.19817E-04 10863   0.151E-02
RMM:  11    -0.660875608921E+03   -0.70811E-05   -0.23850E-05  9151   0.537E-03
RMM:  12    -0.660875610021E+03   -0.11004E-05   -0.57141E-06  8027   0.228E-03
RMM:  13    -0.660875610240E+03   -0.21942E-06   -0.81474E-07  6680   0.928E-04
RMM:  14    -0.660875610275E+03   -0.34817E-07   -0.17327E-07  5121   0.464E-04
RMM:  15    -0.660875610282E+03   -0.66103E-08   -0.26801E-08  3919   0.288E-04
DAV:   1    -0.535196774019E+04   -0.53520E+04   -0.16335E+00  6640   0.625E+00
DAV:   2    -0.535198297111E+04   -0.15231E-01   -0.15231E-01  7952   0.182E+00
DAV:   3    -0.535198353040E+04   -0.55929E-03   -0.55928E-03  8560   0.366E-01
DAV:   4    -0.535198357226E+04   -0.41864E-04   -0.41863E-04  8552   0.783E-02
DAV:   5    -0.535198357641E+04   -0.41425E-05   -0.41423E-05  8912   0.256E-02
DAV:   6    -0.535198357684E+04   -0.43142E-06   -0.43124E-06  7200   0.642E-03
DAV:   7    -0.535198357689E+04   -0.50319E-07   -0.50389E-07  6208   0.251E-03
DAV:   8    -0.535198357689E+04   -0.60736E-08   -0.59009E-08  5128   0.819E-04
       N       E                     dE             d eps       ncg     rms
RMM:   1    -0.509677452815E+03   -0.50968E+03   -0.26031E+03  5654   0.475E+02
RMM:   2    -0.634874401828E+03   -0.12520E+03   -0.73639E+02 10087   0.684E+01
RMM:   3    -0.656103872025E+03   -0.21229E+02   -0.12222E+02 10909   0.184E+01
RMM:   4    -0.660066898085E+03   -0.39630E+01   -0.14788E+01 11074   0.623E+00
RMM:   5    -0.660756866235E+03   -0.68997E+00   -0.31169E+00 11471   0.236E+00
RMM:   6    -0.660854818976E+03   -0.97953E-01   -0.32963E-01 11160   0.814E-01
RMM:   7    -0.660868949359E+03   -0.14130E-01   -0.56239E-02 11690   0.313E-01
RMM:   8    -0.660870895683E+03   -0.19463E-02   -0.81888E-03 11579   0.116E-01
RMM:   9    -0.660871217475E+03   -0.32179E-03   -0.12060E-03 11774   0.417E-02
RMM:  10    -0.660871269196E+03   -0.51721E-04   -0.25432E-04 10798   0.159E-02
RMM:  11    -0.660871278107E+03   -0.89106E-05   -0.30885E-05  9378   0.577E-03
RMM:  12    -0.660871279431E+03   -0.13238E-05   -0.62872E-06  7832   0.231E-03
RMM:  13    -0.660871279663E+03   -0.23271E-06   -0.82482E-07  6980   0.921E-04
RMM:  14    -0.660871279699E+03   -0.35734E-07   -0.17444E-07  5081   0.444E-04
RMM:  15    -0.660871279705E+03   -0.60269E-08   -0.20835E-08  3760   0.270E-04
DAV:   1    -0.535203098349E+04   -0.53520E+04   -0.30277E-08  4600   0.925E-04
DAV:   2    -0.535203098350E+04   -0.45657E-09   -0.59809E-09  3552   0.591E-04
       N       E                     dE             d eps       ncg     rms
RMM:   1    -0.509766671782E+03   -0.50977E+03   -0.26046E+03  5655   0.475E+02
RMM:   2    -0.634838642853E+03   -0.12507E+03   -0.73549E+02 10087   0.684E+01
RMM:   3    -0.656087019092E+03   -0.21248E+02   -0.12222E+02 10905   0.184E+01
RMM:   4    -0.660030596730E+03   -0.39436E+01   -0.14698E+01 11073   0.622E+00
RMM:   5    -0.660716037833E+03   -0.68544E+00   -0.31471E+00 11460   0.236E+00
RMM:   6    -0.660813269146E+03   -0.97231E-01   -0.32324E-01 11139   0.810E-01
RMM:   7    -0.660827238570E+03   -0.13969E-01   -0.55586E-02 11695   0.313E-01
RMM:   8    -0.660829166945E+03   -0.19284E-02   -0.80992E-03 11559   0.115E-01
RMM:   9    -0.660829484578E+03   -0.31763E-03   -0.11858E-03 11767   0.415E-02
RMM:  10    -0.660829535113E+03   -0.50534E-04   -0.24786E-04 10793   0.157E-02
RMM:  11    -0.660829543767E+03   -0.86542E-05   -0.29103E-05  9486   0.568E-03
RMM:  12    -0.660829545026E+03   -0.12596E-05   -0.61135E-06  7873   0.231E-03
RMM:  13    -0.660829545266E+03   -0.23909E-06   -0.84464E-07  6940   0.924E-04
RMM:  14    -0.660829545302E+03   -0.36758E-07   -0.17909E-07  5070   0.446E-04
RMM:  15    -0.660829545308E+03   -0.59438E-08   -0.20302E-08  3777   0.269E-04
DAV:   1    -0.535206238104E+04   -0.53521E+04   -0.16334E+00  6640   0.625E+00
DAV:   2    -0.535207764615E+04   -0.15265E-01   -0.15265E-01  7928   0.183E+00
DAV:   3    -0.535207821320E+04   -0.56705E-03   -0.56704E-03  8520   0.370E-01
DAV:   4    -0.535207825661E+04   -0.43411E-04   -0.43410E-04  8368   0.793E-02
DAV:   5    -0.535207826080E+04   -0.41888E-05   -0.41889E-05  8872   0.262E-02
DAV:   6    -0.535207826122E+04   -0.42018E-06   -0.42012E-06  7264   0.651E-03
DAV:   7    -0.535207826127E+04   -0.51621E-07   -0.51461E-07  6240   0.256E-03
DAV:   8    -0.535207826128E+04   -0.65229E-08   -0.65721E-08  5224   0.858E-04
       N       E                     dE             d eps       ncg     rms
RMM:   1    -0.509712023836E+03   -0.50971E+03   -0.26053E+03  5655   0.475E+02
RMM:   2    -0.634769497444E+03   -0.12506E+03   -0.73536E+02 10086   0.684E+01
RMM:   3    -0.656047499226E+03   -0.21278E+02   -0.12248E+02 10907   0.184E+01
RMM:   4    -0.659980179729E+03   -0.39327E+01   -0.14608E+01 11055   0.621E+00
RMM:   5    -0.660661740011E+03   -0.68156E+00   -0.31617E+00 11478   0.236E+00
RMM:   6    -0.660759111497E+03   -0.97371E-01   -0.32397E-01 11116   0.812E-01
RMM:   7    -0.660773163386E+03   -0.14052E-01   -0.55705E-02 11698   0.314E-01
RMM:   8    -0.660775090339E+03   -0.19270E-02   -0.81425E-03 11558   0.116E-01
RMM:   9    -0.660775405952E+03   -0.31561E-03   -0.11660E-03 11758   0.414E-02
RMM:  10    -0.660775455657E+03   -0.49705E-04   -0.24330E-04 10846   0.157E-02
RMM:  11    -0.660775464240E+03   -0.85824E-05   -0.29235E-05  9476   0.571E-03
RMM:  12    -0.660775465510E+03   -0.12703E-05   -0.62220E-06  7849   0.231E-03
RMM:  13    -0.660775465747E+03   -0.23641E-06   -0.83720E-07  6916   0.921E-04
RMM:  14    -0.660775465783E+03   -0.36053E-07   -0.17489E-07  5057   0.443E-04
RMM:  15    -0.660775465789E+03   -0.60584E-08   -0.20677E-08  3750   0.269E-04
       N       E                     dE             d eps       ncg     rms
RLQ:   1    -0.162028673271E+02   -0.16203E+02   -0.17371E+03  5520   0.410E+02
RLQ:   2    -0.195980848561E+02   -0.33952E+01   -0.24700E+01 10362   0.123E+01
RLQ:   3    -0.207432813775E+02   -0.11452E+01   -0.57826E+00 10758   0.342E+00
RLQ:   4    -0.208930912938E+02   -0.14981E+00   -0.60381E-01 11308   0.104E+00
RLQ:   5    -0.209171288677E+02   -0.24038E-01   -0.80518E-02 11136   0.367E-01
RLQ:   6    -0.209201291816E+02   -0.30003E-02   -0.13281E-02 10783   0.135E-01
RLQ:   7    -0.209205584146E+02   -0.42923E-03   -0.16821E-03 10893   0.496E-02
RLQ:   8    -0.209206169336E+02   -0.58519E-04   -0.24306E-04 10460   0.177E-02
RLQ:   9    -0.209206252103E+02   -0.82767E-05   -0.36809E-05  9741   0.669E-03
RLQ:  10    -0.209206265298E+02   -0.13195E-05   -0.60083E-06  8305   0.251E-03
RLQ:  11    -0.209206267452E+02   -0.21537E-06   -0.77839E-07  7490   0.996E-04
RLQ:  12    -0.209206267774E+02   -0.32235E-07   -0.16718E-07  5562   0.456E-04
RLQ:  13    -0.209206267826E+02   -0.51783E-08   -0.14545E-08  3742   0.272E-04
DAV:   1    -0.535202567948E+04   -0.53520E+04   -0.16525E+00  6433   0.622E+00
DAV:   2    -0.535204037065E+04   -0.14691E-01   -0.14691E-01  7872   0.185E+00
DAV:   3    -0.535204089752E+04   -0.52686E-03   -0.52686E-03  8424   0.365E-01
DAV:   4    -0.535204093569E+04   -0.38174E-04   -0.38174E-04  8480   0.790E-02
DAV:   5    -0.535204093923E+04   -0.35354E-05   -0.35353E-05  8768   0.247E-02
DAV:   6    -0.535204093956E+04   -0.33504E-06   -0.33513E-06  7544   0.624E-03
DAV:   7    -0.535204093959E+04   -0.31821E-07   -0.31809E-07  6088   0.212E-03
DAV:   8    -0.535204093960E+04   -0.34624E-08   -0.35176E-08  5176   0.744E-04
       N       E                     dE             d eps       ncg     rms
RMM:   1    -0.499025203226E+03   -0.49903E+03   -0.27356E+03  5600   0.495E+02
RMM:   2    -0.633868289049E+03   -0.13484E+03   -0.80487E+02  9878   0.689E+01
RMM:   3    -0.656498735881E+03   -0.22630E+02   -0.97585E+01 10829   0.180E+01
RMM:   4    -0.660034505618E+03   -0.35358E+01   -0.13480E+01 11047   0.595E+00
RMM:   5    -0.660580071325E+03   -0.54557E+00   -0.18350E+00 11404   0.210E+00
RMM:   6    -0.660663383952E+03   -0.83313E-01   -0.35950E-01 11143   0.792E-01
RMM:   7    -0.660674085855E+03   -0.10702E-01   -0.35850E-02 11569   0.279E-01
RMM:   8    -0.660675610010E+03   -0.15242E-02   -0.71197E-03 11598   0.108E-01
RMM:   9    -0.660675845961E+03   -0.23595E-03   -0.88551E-04 11658   0.380E-02
RMM:  10    -0.660675885804E+03   -0.39844E-04   -0.19766E-04 10894   0.152E-02
RMM:  11    -0.660675892949E+03   -0.71446E-05   -0.24296E-05  9087   0.543E-03
RMM:  12    -0.660675894072E+03   -0.11235E-05   -0.57943E-06  8014   0.229E-03
RMM:  13    -0.660675894293E+03   -0.22043E-06   -0.82664E-07  6738   0.930E-04
RMM:  14    -0.660675894328E+03   -0.34733E-07   -0.17182E-07  5123   0.463E-04
RMM:  15    -0.660675894334E+03   -0.66034E-08   -0.26942E-08  3928   0.288E-04
DAV:   1    -0.535203098349E+04   -0.53520E+04   -0.30279E-08  4600   0.925E-04
DAV:   2    -0.535203098350E+04   -0.77762E-09   -0.59709E-09  3552   0.591E-04
       N       E                     dE             d eps       ncg     rms
RMM:   1    -0.498991274840E+03   -0.49899E+03   -0.27341E+03  5599   0.495E+02
RMM:   2    -0.634078015968E+03   -0.13509E+03   -0.80669E+02  9878   0.688E+01
RMM:   3    -0.656683636691E+03   -0.22606E+02   -0.97411E+01 10825   0.180E+01
RMM:   4    -0.660219343289E+03   -0.35357E+01   -0.13486E+01 11049   0.595E+00
RMM:   5    -0.660765012275E+03   -0.54567E+00   -0.18333E+00 11399   0.210E+00
RMM:   6    -0.660848412566E+03   -0.83400E-01   -0.36126E-01 11153   0.792E-01
RMM:   7    -0.660859150143E+03   -0.10738E-01   -0.35603E-02 11534   0.278E-01
RMM:   8    -0.660860677123E+03   -0.15270E-02   -0.72128E-03 11602   0.109E-01
RMM:   9    -0.660860915242E+03   -0.23812E-03   -0.88038E-04 11648   0.381E-02
RMM:  10    -0.660860954973E+03   -0.39731E-04   -0.19645E-04 10905   0.151E-02
RMM:  11    -0.660860962154E+03   -0.71804E-05   -0.24254E-05  9133   0.543E-03
RMM:  12    -0.660860963290E+03   -0.11366E-05   -0.59336E-06  8010   0.230E-03
RMM:  13    -0.660860963509E+03   -0.21895E-06   -0.80713E-07  6712   0.925E-04
RMM:  14    -0.660860963544E+03   -0.34622E-07   -0.17357E-07  5126   0.464E-04
RMM:  15    -0.660860963551E+03   -0.66351E-08   -0.27405E-08  3925   0.288E-04
DAV:   1    -0.535200562840E+04   -0.53520E+04   -0.16524E+00  6425   0.622E+00
DAV:   2    -0.535202032290E+04   -0.14695E-01   -0.14694E-01  7864   0.185E+00
DAV:   3    -0.535202085184E+04   -0.52894E-03   -0.52893E-03  8360   0.366E-01
DAV:   4    -0.535202089106E+04   -0.39215E-04   -0.39214E-04  8416   0.805E-02
DAV:   5    -0.535202089472E+04   -0.36632E-05   -0.36632E-05  8760   0.255E-02
DAV:   6    -0.535202089509E+04   -0.36619E-06   -0.36604E-06  7624   0.657E-03
DAV:   7    -0.535202089512E+04   -0.35751E-07   -0.35582E-07  6184   0.224E-03
DAV:   8    -0.535202089513E+04   -0.37417E-08   -0.36743E-08  5224   0.755E-04
       N       E                     dE             d eps       ncg     rms
RMM:   1    -0.499021042511E+03   -0.49902E+03   -0.27337E+03  5599   0.495E+02
RMM:   2    -0.634198726043E+03   -0.13518E+03   -0.80756E+02  9877   0.689E+01
RMM:   3    -0.656847329061E+03   -0.22649E+02   -0.97458E+01 10824   0.180E+01
RMM:   4    -0.660393706749E+03   -0.35464E+01   -0.13567E+01 11053   0.596E+00
RMM:   5    -0.660938948738E+03   -0.54524E+00   -0.18209E+00 11416   0.209E+00
RMM:   6    -0.661021669089E+03   -0.82720E-01   -0.35854E-01 11145   0.789E-01
RMM:   7    -0.661032309713E+03   -0.10641E-01   -0.35086E-02 11564   0.276E-01
RMM:   8    -0.661033812466E+03   -0.15028E-02   -0.70954E-03 11576   0.108E-01
RMM:   9    -0.661034049877E+03   -0.23741E-03   -0.88290E-04 11696   0.380E-02
RMM:  10    -0.661034089590E+03   -0.39713E-04   -0.19637E-04 10860   0.151E-02
RMM:  11    -0.661034096755E+03   -0.71651E-05   -0.24223E-05  9118   0.541E-03
RMM:  12    -0.661034097883E+03   -0.11273E-05   -0.58690E-06  7971   0.228E-03
RMM:  13    -0.661034098104E+03   -0.22113E-06   -0.81018E-07  6704   0.927E-04
RMM:  14    -0.661034098139E+03   -0.34856E-07   -0.17330E-07  5115   0.464E-04
RMM:  15    -0.661034098145E+03   -0.67087E-08   -0.27276E-08  3941   0.288E-04
DAV:   1    -0.535196774019E+04   -0.53520E+04   -0.16335E+00  6640   0.625E+00
DAV:   2    -0.535198297111E+04   -0.15231E-01   -0.15231E-01  7952   0.182E+00
DAV:   3    -0.535198353040E+04   -0.55929E-03   -0.55928E-03  8560   0.366E-01
DAV:   4    -0.535198357226E+04   -0.41864E-04   -0.41863E-04  8552   0.783E-02
DAV:   5    -0.535198357641E+04   -0.41424E-05   -0.41423E-05  8912   0.256E-02
DAV:   6    -0.535198357684E+04   -0.43128E-06   -0.43124E-06  7200   0.642E-03
DAV:   7    -0.535198357689E+04   -0.50422E-07   -0.50389E-07  6208   0.251E-03
DAV:   8    -0.535198357689E+04   -0.58799E-08   -0.59005E-08  5128   0.819E-04
       N       E                     dE             d eps       ncg     rms
RMM:   1    -0.517522694037E+03   -0.51752E+03   -0.25127E+03  5680   0.463E+02
RMM:   2    -0.637408236665E+03   -0.11989E+03   -0.70547E+02  9982   0.677E+01
RMM:   3    -0.656731212864E+03   -0.19323E+02   -0.11015E+02 10871   0.180E+01
RMM:   4    -0.660444631640E+03   -0.37134E+01   -0.13821E+01 11081   0.602E+00
RMM:   5    -0.661074326283E+03   -0.62969E+00   -0.23473E+00 11325   0.222E+00
RMM:   6    -0.661159836904E+03   -0.85511E-01   -0.32904E-01 11202   0.805E-01
RMM:   7    -0.661172524274E+03   -0.12687E-01   -0.51358E-02 11641   0.305E-01
RMM:   8    -0.661174297703E+03   -0.17734E-02   -0.76778E-03 11497   0.114E-01
RMM:   9    -0.661174588186E+03   -0.29048E-03   -0.10792E-03 11714   0.416E-02
RMM:  10    -0.661174633796E+03   -0.45610E-04   -0.22644E-04 10822   0.160E-02
RMM:  11    -0.661174642005E+03   -0.82084E-05   -0.25209E-05  9541   0.568E-03
RMM:  12    -0.661174643107E+03   -0.11018E-05   -0.54625E-06  7855   0.231E-03
RMM:  13    -0.661174643313E+03   -0.20660E-06   -0.72562E-07  6921   0.917E-04
RMM:  14    -0.661174643344E+03   -0.30509E-07   -0.13893E-07  5032   0.444E-04
RMM:  15    -0.661174643349E+03   -0.54781E-08   -0.21595E-08  3762   0.275E-04
DAV:   1    -0.535203098349E+04   -0.53520E+04   -0.30278E-08  4600   0.925E-04
DAV:   2    -0.535203098350E+04   -0.84947E-09   -0.59669E-09  3552   0.591E-04
       N       E                     dE             d eps       ncg     rms
RMM:   1    -0.517352330706E+03   -0.51735E+03   -0.25108E+03  5678   0.463E+02
RMM:   2    -0.637391191149E+03   -0.12004E+03   -0.70613E+02  9981   0.677E+01
RMM:   3    -0.656736533426E+03   -0.19345E+02   -0.11037E+02 10872   0.180E+01
RMM:   4    -0.660434631922E+03   -0.36981E+01   -0.13754E+01 11085   0.601E+00
RMM:   5    -0.661060776094E+03   -0.62614E+00   -0.23537E+00 11315   0.221E+00
RMM:   6    -0.661145640082E+03   -0.84864E-01   -0.32486E-01 11190   0.802E-01
RMM:   7    -0.661158234654E+03   -0.12595E-01   -0.50846E-02 11640   0.304E-01
RMM:   8    -0.661159980131E+03   -0.17455E-02   -0.74829E-03 11467   0.113E-01
RMM:   9    -0.661160266055E+03   -0.28592E-03   -0.10732E-03 11728   0.417E-02
RMM:  10    -0.661160311954E+03   -0.45899E-04   -0.22826E-04 10808   0.161E-02
RMM:  11    -0.661160320163E+03   -0.82091E-05   -0.25019E-05  9566   0.568E-03
RMM:  12    -0.661160321245E+03   -0.10825E-05   -0.52238E-06  7833   0.230E-03
RMM:  13    -0.661160321450E+03   -0.20495E-06   -0.69022E-07  6897   0.920E-04
RMM:  14    -0.661160321481E+03   -0.30285E-07   -0.14225E-07  5067   0.449E-04
RMM:  15    -0.661160321486E+03   -0.55633E-08   -0.21206E-08  3806   0.277E-04
DAV:   1    -0.535206238104E+04   -0.53521E+04   -0.16334E+00  6640   0.625E+00
DAV:   2    -0.535207764615E+04   -0.15265E-01   -0.15265E-01  7928   0.183E+00
DAV:   3    -0.535207821320E+04   -0.56705E-03   -0.56704E-03  8520   0.370E-01
DAV:   4    -0.535207825661E+04   -0.43411E-04   -0.43410E-04  8368   0.793E-02
DAV:   5    -0.535207826080E+04   -0.41889E-05   -0.41889E-05  8872   0.262E-02
DAV:   6    -0.535207826122E+04   -0.42000E-06   -0.42012E-06  7264   0.651E-03
DAV:   7    -0.535207826127E+04   -0.51646E-07   -0.51461E-07  6240   0.256E-03
DAV:   8    -0.535207826128E+04   -0.65756E-08   -0.65726E-08  5224   0.858E-04
       N       E                     dE             d eps       ncg     rms
RMM:   1    -0.517196587180E+03   -0.51720E+03   -0.25093E+03  5677   0.463E+02
RMM:   2    -0.637384890301E+03   -0.12019E+03   -0.70708E+02  9986   0.678E+01
RMM:   3    -0.656716652854E+03   -0.19332E+02   -0.11033E+02 10871   0.180E+01
RMM:   4    -0.660407935788E+03   -0.36913E+01   -0.13717E+01 11078   0.601E+00
RMM:   5    -0.661034298759E+03   -0.62636E+00   -0.23741E+00 11327   0.222E+00
RMM:   6    -0.661119051842E+03   -0.84753E-01   -0.32083E-01 11181   0.800E-01
RMM:   7    -0.661131615745E+03   -0.12564E-01   -0.50737E-02 11647   0.303E-01
RMM:   8    -0.661133358704E+03   -0.17430E-02   -0.74798E-03 11456   0.113E-01
RMM:   9    -0.661133643648E+03   -0.28494E-03   -0.10497E-03 11732   0.414E-02
RMM:  10    -0.661133688712E+03   -0.45064E-04   -0.22346E-04 10775   0.160E-02
RMM:  11    -0.661133696941E+03   -0.82285E-05   -0.25136E-05  9560   0.570E-03
RMM:  12    -0.661133698029E+03   -0.10885E-05   -0.51728E-06  7832   0.229E-03
RMM:  13    -0.661133698230E+03   -0.20061E-06   -0.65870E-07  6888   0.912E-04
RMM:  14    -0.661133698259E+03   -0.29679E-07   -0.14015E-07  5072   0.448E-04
RMM:  15    -0.661133698265E+03   -0.56037E-08   -0.21475E-08  3788   0.278E-04
       N       E                     dE             d eps       ncg     rms
RLQ:   1    -0.161284375511E+02   -0.16128E+02   -0.17301E+03  5520   0.410E+02
RLQ:   2    -0.195908037971E+02   -0.34624E+01   -0.25276E+01 10376   0.123E+01
RLQ:   3    -0.207461090548E+02   -0.11553E+01   -0.60660E+00 10858   0.339E+00
RLQ:   4    -0.208900777689E+02   -0.14397E+00   -0.53910E-01 11259   0.995E-01
RLQ:   5    -0.209114183008E+02   -0.21341E-01   -0.74480E-02 11265   0.355E-01
RLQ:   6    -0.209142449774E+02   -0.28267E-02   -0.12801E-02 10920   0.131E-01
RLQ:   7    -0.209146385102E+02   -0.39353E-03   -0.15219E-03 10840   0.479E-02
RLQ:   8    -0.209146934778E+02   -0.54968E-04   -0.23610E-04 10508   0.174E-02
RLQ:   9    -0.209147017521E+02   -0.82743E-05   -0.35286E-05  9658   0.671E-03
RLQ:  10    -0.209147032014E+02   -0.14492E-05   -0.73534E-06  8320   0.262E-03
RLQ:  11    -0.209147034475E+02   -0.24611E-06   -0.80055E-07  7398   0.103E-03
RLQ:  12    -0.209147034870E+02   -0.39540E-07   -0.21752E-07  5465   0.483E-04
RLQ:  13    -0.209147034939E+02   -0.69011E-08   -0.20080E-08  3812   0.284E-04
DAV:   1    -0.535202567948E+04   -0.53520E+04   -0.16525E+00  6433   0.622E+00
DAV:   2    -0.535204037065E+04   -0.14691E-01   -0.14691E-01  7872   0.185E+00
DAV:   3    -0.535204089752E+04   -0.52686E-03   -0.52686E-03  8424   0.365E-01
DAV:   4    -0.535204093569E+04   -0.38174E-04   -0.38174E-04  8480   0.790E-02
DAV:   5    -0.535204093923E+04   -0.35353E-05   -0.35353E-05  8768   0.247E-02
DAV:   6    -0.535204093956E+04   -0.33518E-06   -0.33513E-06  7544   0.624E-03
DAV:   7    -0.535204093959E+04   -0.31570E-07   -0.31810E-07  6088   0.212E-03
DAV:   8    -0.535204093960E+04   -0.37580E-08   -0.35184E-08  5176   0.744E-04
       N       E                     dE             d eps       ncg     rms
RMM:   1    -0.509751173831E+03   -0.50975E+03   -0.26048E+03  5655   0.475E+02
RMM:   2    -0.634816745677E+03   -0.12507E+03   -0.73551E+02 10087   0.684E+01
RMM:   3    -0.656067903486E+03   -0.21251E+02   -0.12231E+02 10907   0.184E+01
RMM:   4    -0.660016105527E+03   -0.39482E+01   -0.14703E+01 11065   0.622E+00
RMM:   5    -0.660700750518E+03   -0.68464E+00   -0.31390E+00 11473   0.236E+00
RMM:   6    -0.660798221598E+03   -0.97471E-01   -0.32541E-01 11124   0.812E-01
RMM:   7    -0.660812271317E+03   -0.14050E-01   -0.55804E-02 11714   0.314E-01
RMM:   8    -0.660814202954E+03   -0.19316E-02   -0.80922E-03 11564   0.115E-01
RMM:   9    -0.660814518491E+03   -0.31554E-03   -0.11838E-03 11778   0.416E-02
RMM:  10    -0.660814568972E+03   -0.50482E-04   -0.24786E-04 10831   0.158E-02
RMM:  11    -0.660814577658E+03   -0.86860E-05   -0.29404E-05  9489   0.572E-03
RMM:  12    -0.660814578916E+03   -0.12574E-05   -0.60404E-06  7865   0.231E-03
RMM:  13    -0.660814579155E+03   -0.23888E-06   -0.86061E-07  6947   0.933E-04
RMM:  14    -0.660814579192E+03   -0.36907E-07   -0.17919E-07  5097   0.449E-04
RMM:  15    -0.660814579198E+03   -0.64767E-08   -0.22831E-08  3805   0.273E-04
DAV:   1    -0.535203098349E+04   -0.53520E+04   -0.30279E-08  4600   0.925E-04
DAV:   2    -0.535203098350E+04   -0.60118E-09   -0.59759E-09  3552   0.591E-04
       N       E                     dE             d eps       ncg     rms
RMM:   1    -0.509766671782E+03   -0.50977E+03   -0.26046E+03  5655   0.475E+02
RMM:   2    -0.634838642853E+03   -0.12507E+03   -0.73549E+02 10087   0.684E+01
RMM:   3    -0.656087019092E+03   -0.21248E+02   -0.12222E+02 10905   0.184E+01
RMM:   4    -0.660030596730E+03   -0.39436E+01   -0.14698E+01 11073   0.622E+00
RMM:   5    -0.660716037833E+03   -0.68544E+00   -0.31471E+00 11460   0.236E+00
RMM:   6    -0.660813269146E+03   -0.97231E-01   -0.32324E-01 11139   0.810E-01
RMM:   7    -0.660827238570E+03   -0.13969E-01   -0.55586E-02 11695   0.313E-01
RMM:   8    -0.660829166945E+03   -0.19284E-02   -0.80992E-03 11559   0.115E-01
RMM:   9    -0.660829484578E+03   -0.31763E-03   -0.11858E-03 11767   0.415E-02
RMM:  10    -0.660829535113E+03   -0.50534E-04   -0.24786E-04 10793   0.157E-02
RMM:  11    -0.660829543767E+03   -0.86542E-05   -0.29103E-05  9486   0.568E-03
RMM:  12    -0.660829545026E+03   -0.12596E-05   -0.61135E-06  7873   0.231E-03
RMM:  13    -0.660829545266E+03   -0.23909E-06   -0.84464E-07  6940   0.924E-04
RMM:  14    -0.660829545302E+03   -0.36758E-07   -0.17909E-07  5070   0.446E-04
RMM:  15    -0.660829545308E+03   -0.59439E-08   -0.20302E-08  3777   0.269E-04
DAV:   1    -0.535200562840E+04   -0.53520E+04   -0.16524E+00  6425   0.622E+00
DAV:   2    -0.535202032290E+04   -0.14695E-01   -0.14694E-01  7864   0.185E+00
DAV:   3    -0.535202085184E+04   -0.52894E-03   -0.52893E-03  8360   0.366E-01
DAV:   4    -0.535202089106E+04   -0.39215E-04   -0.39214E-04  8416   0.805E-02
DAV:   5    -0.535202089472E+04   -0.36633E-05   -0.36632E-05  8760   0.255E-02
DAV:   6    -0.535202089509E+04   -0.36608E-06   -0.36604E-06  7624   0.657E-03
DAV:   7    -0.535202089512E+04   -0.35650E-07   -0.35608E-07  6192   0.224E-03
DAV:   8    -0.535202089513E+04   -0.34561E-08   -0.36518E-08  5216   0.751E-04
       N       E                     dE             d eps       ncg     rms
RMM:   1    -0.509753511273E+03   -0.50975E+03   -0.26044E+03  5655   0.475E+02
RMM:   2    -0.634831594085E+03   -0.12508E+03   -0.73560E+02 10084   0.684E+01
RMM:   3    -0.656083037391E+03   -0.21251E+02   -0.12224E+02 10908   0.184E+01
RMM:   4    -0.660030142306E+03   -0.39471E+01   -0.14721E+01 11068   0.622E+00
RMM:   5    -0.660717403850E+03   -0.68726E+00   -0.31522E+00 11476   0.236E+00
RMM:   6    -0.660814799022E+03   -0.97395E-01   -0.32475E-01 11138   0.810E-01
RMM:   7    -0.660828809159E+03   -0.14010E-01   -0.55365E-02 11703   0.313E-01
RMM:   8    -0.660830739917E+03   -0.19308E-02   -0.81625E-03 11573   0.115E-01
RMM:   9    -0.660831057914E+03   -0.31800E-03   -0.11761E-03 11764   0.414E-02
RMM:  10    -0.660831108320E+03   -0.50406E-04   -0.24873E-04 10854   0.158E-02
RMM:  11    -0.660831116963E+03   -0.86432E-05   -0.29483E-05  9409   0.570E-03
RMM:  12    -0.660831118269E+03   -0.13058E-05   -0.64071E-06  7855   0.233E-03
RMM:  13    -0.660831118513E+03   -0.24443E-06   -0.84179E-07  6939   0.924E-04
RMM:  14    -0.660831118550E+03   -0.36125E-07   -0.17485E-07  5087   0.443E-04
RMM:  15    -0.660831118555E+03   -0.57491E-08   -0.19306E-08  3759   0.267E-04
DAV:   1    -0.535194881201E+04   -0.53519E+04   -0.16441E+00  6710   0.624E+00
DAV:   2    -0.535196380454E+04   -0.14993E-01   -0.14992E-01  7880   0.184E+00
DAV:   3    -0.535196439722E+04   -0.59269E-03   -0.59268E-03  8552   0.379E-01
DAV:   4    -0.535196444585E+04   -0.48630E-04   -0.48629E-04  8592   0.847E-02
DAV:   5    -0.535196445014E+04   -0.42872E-05   -0.42873E-05  8712   0.260E-02
DAV:   6    -0.535196445062E+04   -0.48228E-06   -0.48201E-06  7528   0.704E-03
DAV:   7    -0.535196445067E+04   -0.49266E-07   -0.49501E-07  6104   0.245E-03
DAV:   8    -0.535196445068E+04   -0.60236E-08   -0.59022E-08  5256   0.873E-04
       N       E                     dE             d eps       ncg     rms
RMM:   1    -0.517255397100E+03   -0.51726E+03   -0.25094E+03  5677   0.463E+02
RMM:   2    -0.637325931646E+03   -0.12007E+03   -0.70590E+02  9979   0.678E+01
RMM:   3    -0.656746122232E+03   -0.19420E+02   -0.11066E+02 10875   0.180E+01
RMM:   4    -0.660464898901E+03   -0.37188E+01   -0.13837E+01 11084   0.602E+00
RMM:   5    -0.661095031344E+03   -0.63013E+00   -0.23482E+00 11320   0.222E+00
RMM:   6    -0.661180760215E+03   -0.85729E-01   -0.33102E-01 11204   0.806E-01
RMM:   7    -0.661193454255E+03   -0.12694E-01   -0.51167E-02 11646   0.305E-01
RMM:   8    -0.661195215489E+03   -0.17612E-02   -0.75587E-03 11482   0.114E-01
RMM:   9    -0.661195502920E+03   -0.28743E-03   -0.10862E-03 11738   0.418E-02
RMM:  10    -0.661195548937E+03   -0.46017E-04   -0.22755E-04 10797   0.160E-02
RMM:  11    -0.661195556979E+03   -0.80419E-05   -0.24999E-05  9563   0.568E-03
RMM:  12    -0.661195558056E+03   -0.10771E-05   -0.52346E-06  7848   0.230E-03
RMM:  13    -0.661195558264E+03   -0.20763E-06   -0.69669E-07  6917   0.918E-04
RMM:  14    -0.661195558294E+03   -0.29790E-07   -0.13826E-07  5052   0.445E-04
RMM:  15    -0.661195558299E+03   -0.52239E-08   -0.19920E-08  3766   0.274E-04
DAV:   1    -0.535203098349E+04   -0.53520E+04   -0.30278E-08  4600   0.925E-04
DAV:   2    -0.535203098350E+04   -0.81673E-09   -0.59725E-09  3552   0.591E-04
       N       E                     dE             d eps       ncg     rms
RMM:   1    -0.517352330706E+03   -0.51735E+03   -0.25108E+03  5678   0.463E+02
RMM:   2    -0.637391191149E+03   -0.12004E+03   -0.70613E+02  9981   0.677E+01
RMM:   3    -0.656736533426E+03   -0.19345E+02   -0.11037E+02 10872   0.180E+01
RMM:   4    -0.660434631922E+03   -0.36981E+01   -0.13754E+01 11085   0.601E+00
RMM:   5    -0.661060776094E+03   -0.62614E+00   -0.23537E+00 11315   0.221E+00
RMM:   6    -0.661145640082E+03   -0.84864E-01   -0.32486E-01 11190   0.802E-01
RMM:   7    -0.661158234654E+03   -0.12595E-01   -0.50846E-02 11640   0.304E-01
RMM:   8    -0.661159980131E+03   -0.17455E-02   -0.74829E-03 11467   0.113E-01
RMM:   9    -0.661160266055E+03   -0.28592E-03   -0.10732E-03 11728   0.417E-02
RMM:  10    -0.661160311954E+03   -0.45899E-04   -0.22826E-04 10808   0.161E-02
RMM:  11    -0.661160320163E+03   -0.82091E-05   -0.25019E-05  9566   0.568E-03
RMM:  12    -0.661160321245E+03   -0.10825E-05   -0.52238E-06  7833   0.230E-03
RMM:  13    -0.661160321450E+03   -0.20495E-06   -0.69022E-07  6897   0.920E-04
RMM:  14    -0.661160321481E+03   -0.30285E-07   -0.14225E-07  5067   0.449E-04
RMM:  15    -0.661160321486E+03   -0.55636E-08   -0.21205E-08  3806   0.277E-04
DAV:   1    -0.535208165794E+04   -0.53521E+04   -0.16432E+00  6686   0.624E+00
DAV:   2    -0.535209673397E+04   -0.15076E-01   -0.15076E-01  7872   0.185E+00
DAV:   3    -0.535209732927E+04   -0.59529E-03   -0.59529E-03  8560   0.383E-01
DAV:   4    -0.535209737803E+04   -0.48765E-04   -0.48764E-04  8608   0.849E-02
DAV:   5    -0.535209738227E+04   -0.42368E-05   -0.42369E-05  8720   0.260E-02
DAV:   6    -0.535209738274E+04   -0.46881E-06   -0.46873E-06  7608   0.700E-03
DAV:   7    -0.535209738279E+04   -0.51436E-07   -0.51499E-07  6136   0.250E-03
DAV:   8    -0.535209738280E+04   -0.60209E-08   -0.60908E-08  5296   0.877E-04
       N       E                     dE             d eps       ncg     rms
RMM:   1    -0.517453757081E+03   -0.51745E+03   -0.25127E+03  5680   0.463E+02
RMM:   2    -0.637413003468E+03   -0.11996E+03   -0.70623E+02  9982   0.677E+01
RMM:   3    -0.656703199527E+03   -0.19290E+02   -0.11001E+02 10866   0.180E+01
RMM:   4    -0.660389569453E+03   -0.36864E+01   -0.13681E+01 11083   0.601E+00
RMM:   5    -0.661011679962E+03   -0.62211E+00   -0.23477E+00 11317   0.222E+00
RMM:   6    -0.661096659112E+03   -0.84979E-01   -0.32477E-01 11191   0.804E-01
RMM:   7    -0.661109414182E+03   -0.12755E-01   -0.51230E-02 11635   0.305E-01
RMM:   8    -0.661111167655E+03   -0.17535E-02   -0.75706E-03 11470   0.113E-01
RMM:   9    -0.661111455340E+03   -0.28768E-03   -0.10673E-03 11713   0.416E-02
RMM:  10    -0.661111500730E+03   -0.45390E-04   -0.22534E-04 10793   0.161E-02
RMM:  11    -0.661111509070E+03   -0.83404E-05   -0.25593E-05  9528   0.574E-03
RMM:  12    -0.661111510190E+03   -0.11197E-05   -0.54341E-06  7836   0.232E-03
RMM:  13    -0.661111510396E+03   -0.20624E-06   -0.68565E-07  6874   0.917E-04
RMM:  14    -0.661111510426E+03   -0.30271E-07   -0.14185E-07  5074   0.450E-04
RMM:  15    -0.661111510432E+03   -0.57368E-08   -0.22016E-08  3821   0.279E-04
       N       E                     dE             d eps       ncg     rms
RLQ:   1    -0.160232207515E+02   -0.16023E+02   -0.17220E+03  5520   0.401E+02
RLQ:   2    -0.194820161851E+02   -0.34588E+01   -0.24862E+01 10298   0.121E+01
RLQ:   3    -0.205975988976E+02   -0.11156E+01   -0.53964E+00 10753   0.324E+00
RLQ:   4    -0.207319939372E+02   -0.13440E+00   -0.47714E-01 11170   0.979E-01
RLQ:   5    -0.207525492265E+02   -0.20555E-01   -0.94711E-02 11250   0.367E-01
RLQ:   6    -0.207555508788E+02   -0.30017E-02   -0.11054E-02 10893   0.134E-01
RLQ:   7    -0.207560619843E+02   -0.51111E-03   -0.23034E-03 11070   0.515E-02
RLQ:   8    -0.207561203536E+02   -0.58369E-04   -0.22887E-04 10363   0.176E-02
RLQ:   9    -0.207561288378E+02   -0.84842E-05   -0.37426E-05  9539   0.664E-03
RLQ:  10    -0.207561301234E+02   -0.12856E-05   -0.57667E-06  8199   0.252E-03
RLQ:  11    -0.207561303404E+02   -0.21707E-06   -0.81674E-07  7511   0.102E-03
RLQ:  12    -0.207561303760E+02   -0.35508E-07   -0.17970E-07  5559   0.472E-04
RLQ:  13    -0.207561303821E+02   -0.60991E-08   -0.18483E-08  3867   0.282E-04
