 vasp.6.2.1 16May21 (build Jan  3 2022 11:18:50) complex                         
 executed on             LinuxGNU date 2023.01.27  10:53:15
 running    1 mpi-ranks, with    1 threads/rank
 distrk:  each k-point on    1 cores,    1 groups
 distr:  one band on NCORE=   1 cores,    1 groups


--------------------------------------------------------------------------------------------------------


 INCAR:
   ISTART = 0
   ISMEAR = 0
   SIGMA = 0.01
   ENCUT = 550
   PREC = N
   LREAL = A
   EDIFF = 1e-8
   LCHIMAG = .TRUE.	
   DQ = 0.003
   ICHIBARE = 1
   LEFG = .TRUE.
   QUAD_EFG = 104 -320 -25.58 -94.2

 POTCAR:    PAW_PBE Na_sv_GW 11May2015            
 POTCAR:    PAW_PBE Nb_sv_GW 05Dec2013            
 POTCAR:    PAW_PBE O_s_GW 10Jan2007              
 POTCAR:    PAW_PBE F_GW 21Dec2007                
 POTCAR:    PAW_PBE Na_sv_GW 11May2015            
   SHA256 =  7aca660ab3bfaee19d1ee7a682571aefe7e2df9c5a478cbc4ca048f133583603 Na_sv_GW/POTCAR       
   COPYR  = (c) Copyright 11May2015 Georg Kresse                                                    
   COPYR  = This file is part of the software VASP. Any use, copying, and all other rights are regul
   COPYR  = If you do not have a valid VASP license, you may not use, copy or distribute this file. 
   VRHFIN =Na: 2s2p3s                                                                               
   LEXCH  = PE                                                                                      
   EATOM  =  1305.7875 eV,   95.9727 Ry                                                             
                                                                                                    
   TITEL  = PAW_PBE Na_sv_GW 11May2015                                                              
   LULTRA =        F    use ultrasoft PP ?                                                          
   IUNSCR =        1    unscreen: 0-lin 1-nonlin 2-no                                               
   RPACOR =    1.800    partial core radius                                                         
   POMASS =   22.990; ZVAL   =    9.000    mass and valenz                                          
   RCORE  =    2.200    outmost cutoff radius                                                       
   RWIGS  =    2.200; RWIGS  =    1.164    wigner-seitz radius (au A)                               
   ENMAX  =  372.853; ENMIN  =  279.639 eV                                                          
   RCLOC  =    1.108    cutoff for local pot                                                        
   LCOR   =        T    correct aug charges                                                         
   LPAW   =        T    paw PP                                                                      
   EAUG   =  536.357                                                                                
   RMAX   =    2.245    core radius for proj-oper                                                   
   RAUG   =    1.300    factor for augmentation sphere                                              
   RDEP   =    2.259    radius for radial grids                                                     
   RDEPT  =    1.800    core radius for aug-charge                                                  
                                                                                                    
   Atomic configuration                                                                             
    6 entries                                                                                       
     n  l   j            E        occ.                                                              
     1  0  0.50     -1035.8704   2.0000                                                             
     2  0  0.50       -58.9175   2.0000                                                             
     2  1  1.50       -30.8193   6.0000                                                             
     3  1  1.50        -1.4789   1.0000                                                             
     3  2  1.50        -0.7184   0.0000                                                             
     4  3  2.50        -1.3606   0.0000                                                             
   Description                                                                                      
     l       E           TYP  RCUT    TYP  RCUT                                                     
     0    -58.9175350     23  1.400                                                                 
     0    108.8466080     23  1.400                                                                 
     1    -30.8192593     23  1.650                                                                 
     1     -1.4788505     23  2.200                                                                 
     1     81.6349560     23  2.200                                                                 
     2     20.4087390     23  2.200                                                                 
     2     54.4233040     23  2.200                                                                 
  local pseudopotential read in
  partial core-charges read in
  partial kinetic energy density read in
  kinetic energy density of atom read in
  atomic valenz-charges read in
  non local Contribution for L=           0  read in
    real space projection operators read in
  non local Contribution for L=           0  read in
    real space projection operators read in
  non local Contribution for L=           1  read in
    real space projection operators read in
  non local Contribution for L=           1  read in
    real space projection operators read in
  non local Contribution for L=           1  read in
    real space projection operators read in
  non local Contribution for L=           2  read in
    real space projection operators read in
  non local Contribution for L=           2  read in
    real space projection operators read in
    PAW grid and wavefunctions read in

   number of l-projection  operators is LMAX  =           7
   number of lm-projection operators is LMMAX =          21

 POTCAR:    PAW_PBE Nb_sv_GW 05Dec2013            
   SHA256 =  92555312d9ac833af0561e40fc4a76e56d71d4d09d8a06650f27d1c6e90b59b6 Nb_sv_GW/POTCAR       
   COPYR  = (c) Copyright 05Dec2013 Georg Kresse                                                    
   COPYR  = This file is part of the software VASP. Any use, copying, and all other rights are regul
   COPYR  = If you do not have a valid VASP license, you may not use, copy or distribute this file. 
   VRHFIN =Nb: s1d4                                                                                 
   LEXCH  = PE                                                                                      
   EATOM  =  1553.9121 eV,  114.2093 Ry                                                             
                                                                                                    
   TITEL  = PAW_PBE Nb_sv_GW 05Dec2013                                                              
   LULTRA =        F    use ultrasoft PP ?                                                          
   IUNSCR =        1    unscreen: 0-lin 1-nonlin 2-no                                               
   RPACOR =    2.000    partial core radius                                                         
   POMASS =   92.910; ZVAL   =   13.000    mass and valenz                                          
   RCORE  =    2.100    outmost cutoff radius                                                       
   RWIGS  =    2.100; RWIGS  =    1.111    wigner-seitz radius (au A)                               
   ENMAX  =  353.872; ENMIN  =  265.404 eV                                                          
   RCLOC  =    1.504    cutoff for local pot                                                        
   LCOR   =        T    correct aug charges                                                         
   LPAW   =        T    paw PP                                                                      
   EAUG   =  985.604                                                                                
   DEXC   =    0.000                                                                                
   RMAX   =    2.143    core radius for proj-oper                                                   
   RAUG   =    1.300    factor for augmentation sphere                                              
   RDEP   =    2.156    radius for radial grids                                                     
   RDEPT  =    1.659    core radius for aug-charge                                                  
                                                                                                    
   Atomic configuration                                                                             
   12 entries                                                                                       
     n  l   j            E        occ.                                                              
     1  0  0.50    -18803.5055   2.0000                                                             
     2  0  0.50     -2628.3975   2.0000                                                             
     2  1  1.50     -2346.5263   6.0000                                                             
     3  0  0.50      -437.0036   2.0000                                                             
     3  1  1.50      -344.8858   6.0000                                                             
     3  2  2.50      -194.3725  10.0000                                                             
     4  0  0.50       -56.5884   2.0000                                                             
     4  0  0.50       -59.8656   0.0000                                                             
     4  1  1.50       -32.8152   6.0000                                                             
     4  1  1.50       -38.0963   0.0000                                                             
     4  2  2.50        -1.9113   5.0000                                                             
     4  3  2.50        -1.3606   0.0000                                                             
   Description                                                                                      
     l       E           TYP  RCUT    TYP  RCUT                                                     
     0    -56.5884230     23  1.300                                                                 
     0    -59.8656344     23  1.300                                                                 
     1    -32.8152291     23  1.800                                                                 
     1    -38.0963128     23  1.800                                                                 
     1     54.4233040     23  1.800                                                                 
     2     -1.9112974     23  2.000                                                                 
     2     -6.8029130     23  2.000                                                                 
     2    136.0582600     23  2.000                                                                 
     3     13.6058260     23  2.100                                                                 
     3     81.6349560     23  2.100                                                                 
  local pseudopotential read in
  partial core-charges read in
  partial kinetic energy density read in
  kinetic energy density of atom read in
  atomic valenz-charges read in
  non local Contribution for L=           0  read in
    real space projection operators read in
  non local Contribution for L=           0  read in
    real space projection operators read in
  non local Contribution for L=           1  read in
    real space projection operators read in
  non local Contribution for L=           1  read in
    real space projection operators read in
  non local Contribution for L=           1  read in
    real space projection operators read in
  non local Contribution for L=           2  read in
    real space projection operators read in
  non local Contribution for L=           2  read in
    real space projection operators read in
  non local Contribution for L=           2  read in
    real space projection operators read in
  non local Contribution for L=           3  read in
    real space projection operators read in
  non local Contribution for L=           3  read in
    real space projection operators read in
    PAW grid and wavefunctions read in

   number of l-projection  operators is LMAX  =          10
   number of lm-projection operators is LMMAX =          40

 POTCAR:    PAW_PBE O_s_GW 10Jan2007              
   SHA256 =  8479399bb3502b2838d2b23234b8597ed1f898a5a7f592e6c46d7b1ca5096bfd O_s_GW/POTCAR         
   COPYR  = (c) Copyright 10Jan2007 Georg Kresse                                                    
   COPYR  = This file is part of the software VASP. Any use, copying, and all other rights are regul
   COPYR  = If you do not have a valid VASP license, you may not use, copy or distribute this file. 
   VRHFIN =O: s2p4                                                                                  
   LEXCH  = PE                                                                                      
   EATOM  =   432.3788 eV,   31.7789 Ry                                                             
                                                                                                    
   TITEL  = PAW_PBE O_s_GW 10Jan2007                                                                
   LULTRA =        F    use ultrasoft PP ?                                                          
   IUNSCR =        0    unscreen: 0-lin 1-nonlin 2-no                                               
   RPACOR =    0.000    partial core radius                                                         
   POMASS =   16.000; ZVAL   =    6.000    mass and valenz                                          
   RCORE  =    1.700    outmost cutoff radius                                                       
   RWIGS  =    1.800; RWIGS  =    0.953    wigner-seitz radius (au A)                               
   ENMAX  =  334.664; ENMIN  =  250.998 eV                                                          
   ICORE  =        2    local potential                                                             
   LCOR   =        T    correct aug charges                                                         
   LPAW   =        T    paw PP                                                                      
   EAUG   =  468.659                                                                                
   DEXC   =    0.000                                                                                
   RMAX   =    1.737    core radius for proj-oper                                                   
   RAUG   =    1.300    factor for augmentation sphere                                              
   RDEP   =    1.761    radius for radial grids                                                     
   RDEPT  =    1.463    core radius for aug-charge                                                  
                                                                                                    
   Atomic configuration                                                                             
    4 entries                                                                                       
     n  l   j            E        occ.                                                              
     1  0  0.50      -514.6923   2.0000                                                             
     2  0  0.50       -23.9615   2.0000                                                             
     2  1  0.50        -9.0305   4.0000                                                             
     3  2  1.50        -9.5241   0.0000                                                             
   Description                                                                                      
     l       E           TYP  RCUT    TYP  RCUT                                                     
     0    -23.9615316     23  1.400                                                                 
     0     95.2407820     23  1.400                                                                 
     1     -9.0304908     23  1.700                                                                 
     1    -20.4087390     23  1.700                                                                 
     1    108.8466080     23  1.700                                                                 
     2      6.8029130      7  1.500                                                                 
  local pseudopotential read in
  kinetic energy density of atom read in
  atomic valenz-charges read in
  non local Contribution for L=           0  read in
    real space projection operators read in
  non local Contribution for L=           0  read in
    real space projection operators read in
  non local Contribution for L=           1  read in
    real space projection operators read in
  non local Contribution for L=           1  read in
    real space projection operators read in
  non local Contribution for L=           1  read in
    real space projection operators read in
    PAW grid and wavefunctions read in

   number of l-projection  operators is LMAX  =           5
   number of lm-projection operators is LMMAX =          11

 POTCAR:    PAW_PBE F_GW 21Dec2007                
   SHA256 =  a4be5be7c2e94ecbdd74e103f102d884b83cc3f3bf5f2c60c72fa35846851376 F_GW/POTCAR           
   COPYR  = (c) Copyright 21Dec2007 Georg Kresse                                                    
   COPYR  = This file is part of the software VASP. Any use, copying, and all other rights are regul
   COPYR  = If you do not have a valid VASP license, you may not use, copy or distribute this file. 
   VRHFIN =F: s2p5                                                                                  
   LEXCH  = PE                                                                                      
   EATOM  =   659.6475 eV,   48.4827 Ry                                                             
                                                                                                    
   TITEL  = PAW_PBE F_GW 21Dec2007                                                                  
   LULTRA =        F    use ultrasoft PP ?                                                          
   IUNSCR =        0    unscreen: 0-lin 1-nonlin 2-no                                               
   RPACOR =    0.000    partial core radius                                                         
   POMASS =   18.998; ZVAL   =    7.000    mass and valenz                                          
   RCORE  =    1.400    outmost cutoff radius                                                       
   RWIGS  =    1.500; RWIGS  =    0.794    wigner-seitz radius (au A)                               
   ENMAX  =  487.698; ENMIN  =  365.773 eV                                                          
   ICORE  =        2    local potential                                                             
   LCOR   =        T    correct aug charges                                                         
   LPAW   =        T    paw PP                                                                      
   EAUG   =  697.405                                                                                
   DEXC   =    0.000                                                                                
   RMAX   =    1.435    core radius for proj-oper                                                   
   RAUG   =    1.300    factor for augmentation sphere                                              
   RDEP   =    1.444    radius for radial grids                                                     
   RDEPT  =    1.218    core radius for aug-charge                                                  
                                                                                                    
   Atomic configuration                                                                             
    4 entries                                                                                       
     n  l   j            E        occ.                                                              
     1  0  0.50      -663.3661   2.0000                                                             
     2  0  0.50       -29.8995   2.0000                                                             
     2  1  0.50       -11.1114   5.0000                                                             
     3  2  1.50       -12.2452   0.0000                                                             
   Description                                                                                      
     l       E           TYP  RCUT    TYP  RCUT                                                     
     0    -29.8995019     23  1.100                                                                 
     0     -9.5240782     23  1.100                                                                 
     1    -11.1113914     23  1.400                                                                 
     1      1.3605826     23  1.400                                                                 
     2    -12.2452434     23  1.400                                                                 
  local pseudopotential read in
  kinetic energy density of atom read in
  atomic valenz-charges read in
  non local Contribution for L=           0  read in
    real space projection operators read in
  non local Contribution for L=           0  read in
    real space projection operators read in
  non local Contribution for L=           1  read in
    real space projection operators read in
  non local Contribution for L=           1  read in
    real space projection operators read in
    PAW grid and wavefunctions read in

   number of l-projection  operators is LMAX  =           4
   number of lm-projection operators is LMMAX =           8

 Optimization of the real space projectors (new method)

 maximal supplied QI-value         = 17.01
 optimisation between [QCUT,QGAM] = [ 11.91, 23.98] = [ 39.69,161.04] Ry 
 Optimized for a Real-space Cutoff    1.41 Angstroem

   l    n(q)    QCUT    max X(q) W(low)/X(q) W(high)/X(q)  e(spline) 
   0     10    11.905     3.417    0.52E-05    0.14E-05    0.21E-07
   0     10    11.905     3.114    0.22E-04    0.17E-05    0.22E-06
   1     10    11.905     5.429    0.19E-03    0.12E-03    0.89E-06
   1     10    11.905    22.312    0.14E-03    0.89E-04    0.45E-06
   1     10    11.905     3.323    0.31E-03    0.19E-03    0.13E-05
   2      9    11.905    12.030    0.19E-03    0.32E-04    0.24E-06
   2      9    11.905     8.156    0.21E-03    0.33E-04    0.24E-06
 Optimization of the real space projectors (new method)

 maximal supplied QI-value         = 17.95
 optimisation between [QCUT,QGAM] = [ 11.85, 23.88] = [ 39.31,159.64] Ry 
 Optimized for a Real-space Cutoff    1.45 Angstroem

   l    n(q)    QCUT    max X(q) W(low)/X(q) W(high)/X(q)  e(spline) 
   0     10    11.849   248.532    0.11E-04    0.26E-04    0.11E-05
   0     10    11.849   271.708    0.11E-04    0.26E-04    0.11E-05
   1     10    11.849   107.013    0.14E-03    0.18E-03    0.94E-06
   1     10    11.849   114.493    0.14E-03    0.18E-03    0.95E-06
   1     10    11.849    11.973    0.12E-03    0.16E-03    0.82E-06
   2      9    11.849    38.061    0.49E-03    0.41E-03    0.66E-06
   2      9    11.849    33.524    0.48E-03    0.41E-03    0.65E-06
   2      9    11.849     3.389    0.27E-03    0.25E-03    0.38E-06
   3      9    11.849     2.841    0.11E-03    0.17E-03    0.51E-06
   3      9    11.849     1.405    0.24E-04    0.86E-04    0.29E-06
 Optimization of the real space projectors (new method)

 maximal supplied QI-value         = 22.11
 optimisation between [QCUT,QGAM] = [ 11.94, 23.88] = [ 39.92,159.67] Ry 
 Optimized for a Real-space Cutoff    1.45 Angstroem

   l    n(q)    QCUT    max X(q) W(low)/X(q) W(high)/X(q)  e(spline) 
   0     10    11.939     5.088    0.25E-04    0.28E-06    0.17E-06
   0     10    11.939     1.664    0.52E-04    0.46E-05    0.54E-06
   1     10    11.939     8.077    0.27E-03    0.19E-03    0.13E-05
   1     10    11.939     5.951    0.49E-03    0.34E-03    0.25E-05
   1     10    11.939     3.597    0.20E-03    0.15E-03    0.13E-05
 Optimization of the real space projectors (new method)

 maximal supplied QI-value         = 26.83
 optimisation between [QCUT,QGAM] = [ 11.81, 23.88] = [ 39.04,159.72] Ry 
 Optimized for a Real-space Cutoff    1.11 Angstroem

   l    n(q)    QCUT    max X(q) W(low)/X(q) W(high)/X(q)  e(spline) 
   0      8    11.807    15.805    0.41E-03    0.77E-03    0.26E-06
   0      8    11.807    12.410    0.41E-03    0.76E-03    0.26E-06
   1      7    11.807     9.077    0.16E-03    0.46E-03    0.19E-06
   1      7    11.807     8.229    0.14E-03    0.43E-03    0.19E-06
  PAW_PBE Na_sv_GW 11May2015            :
 energy of atom  1       EATOM=-1305.7875
 kinetic energy error for atom=    0.0318 (will be added to EATOM!!)
  PAW_PBE Nb_sv_GW 05Dec2013            :
 energy of atom  2       EATOM=-1553.9121
 kinetic energy error for atom=    0.0281 (will be added to EATOM!!)
  PAW_PBE O_s_GW 10Jan2007              :
 energy of atom  3       EATOM= -432.3788
 kinetic energy error for atom=    0.0100 (will be added to EATOM!!)
  PAW_PBE F_GW 21Dec2007                :
 energy of atom  4       EATOM= -659.6475
 kinetic energy error for atom=    0.0458 (will be added to EATOM!!)


 POSCAR: Sodium difluorodioxoniobate
  positions in direct lattice
  No initial velocities read in
 exchange correlation table for  LEXCH =        8
   RHO(1)=    0.500       N(1)  =     2000
   RHO(2)=  100.500       N(2)  =     4000



--------------------------------------------------------------------------------------------------------


 ion  position               nearest neighbor table
   1  0.367  0.780  0.116-  19 2.20  24 2.25   9 2.49
   2  0.633  0.220  0.884-  20 2.20  23 2.25  10 2.49
   3  0.633  0.280  0.384-  17 2.20  22 2.25  11 2.49
   4  0.367  0.720  0.616-  18 2.20  21 2.25  12 2.49
   5  0.155  0.264  0.318-  13 1.86  12 1.94  15 1.95  21 1.99   9 2.03  17 2.03
   6  0.845  0.736  0.682-  14 1.86  11 1.94  16 1.95  22 1.99  10 2.03  18 2.03
   7  0.845  0.764  0.182-  15 1.86  10 1.94  13 1.95  23 1.99  11 2.03  19 2.03
   8  0.155  0.236  0.818-  16 1.86   9 1.94  14 1.95  24 1.99  12 2.03  20 2.03
   9  0.183  0.156  0.071-   8 1.94   5 2.03   1 2.49
  10  0.817  0.844  0.929-   7 1.94   6 2.03   2 2.49
  11  0.817  0.656  0.429-   6 1.94   7 2.03   3 2.49
  12  0.183  0.344  0.571-   5 1.94   8 2.03   4 2.49
  13  0.042  0.544  0.212-   5 1.86   7 1.95
  14  0.957  0.456  0.788-   6 1.86   8 1.95
  15  0.957  0.044  0.288-   7 1.86   5 1.95
  16  0.042  0.956  0.712-   8 1.86   6 1.95
  17  0.377  0.444  0.314-   5 2.03   3 2.20
  18  0.623  0.556  0.686-   6 2.03   4 2.20
  19  0.623  0.944  0.186-   7 2.03   1 2.20
  20  0.377  0.056  0.814-   8 2.03   2 2.20
  21  0.310  0.977  0.378-   5 1.99   4 2.25
  22  0.690  0.023  0.622-   6 1.99   3 2.25
  23  0.690  0.477  0.122-   7 1.99   2 2.25
  24  0.310  0.523  0.878-   8 1.99   1 2.25

  LATTYP: Found a simple monoclinic cell.
 ALAT       =     7.6242899895
 B/A-ratio  =     0.7092043771
 C/A-ratio  =     1.0496190107
 COS(beta)  =    -0.2064740474
  
  Lattice vectors:
  
 A1 = (  -1.5742180123,   0.0000000000,   7.4600023789)
 A2 = (   0.0000000000,  -5.4071798325,   0.0000000000)
 A3 = (   8.0025997162,   0.0000000000,   0.0000000000)


Analysis of symmetry for initial positions (statically):
=====================================================================
 Subroutine PRICEL returns:
 Original cell was already a primitive cell.
 

 Routine SETGRP: Setting up the symmetry group for a 
 simple monoclinic supercell.


 Subroutine GETGRP returns: Found  4 space group operations
 (whereof  2 operations were pure point group operations)
 out of a pool of  4 trial point group operations.


The static configuration has the point symmetry S_2 .
 The point group associated with its full space group is C_2h.


Analysis of symmetry for dynamics (positions and initial velocities):
=====================================================================
 Subroutine PRICEL returns:
 Original cell was already a primitive cell.
 

 Routine SETGRP: Setting up the symmetry group for a 
 simple monoclinic supercell.


 Subroutine GETGRP returns: Found  4 space group operations
 (whereof  2 operations were pure point group operations)
 out of a pool of  4 trial point group operations.


The dynamic configuration has the point symmetry S_2 .
 The point group associated with its full space group is C_2h.


 Subroutine INISYM returns: Found  4 space group operations
 (whereof  2 operations are pure point group operations),
 and found     1 'primitive' translations


----------------------------------------------------------------------------------------

                                     Primitive cell                                     

  volume of cell :     322.8055

  direct lattice vectors                    reciprocal lattice vectors
     8.002599716  0.000000000  0.000000000     0.124959393 -0.000000000  0.026369070
     0.000000000  5.407179832  0.000000000     0.000000000  0.184939290 -0.000000000
    -1.574218012  0.000000000  7.460002379     0.000000000  0.000000000  0.134048215

  length of vectors
     8.002599716  5.407179832  7.624289989     0.127711306  0.184939290  0.134048215

  position of ions in fractional coordinates (direct lattice)
     0.366600007  0.779999971  0.115599997
     0.633399963  0.220000029  0.884400010
     0.633399963  0.279999971  0.384400010
     0.366600007  0.720000029  0.615599990
     0.154939994  0.264400005  0.317999989
     0.845059991  0.735599995  0.682000041
     0.845059991  0.764400005  0.182000011
     0.154939994  0.235599995  0.817999959
     0.182500005  0.156200007  0.070900001
     0.817499995  0.843800008  0.929099977
     0.817499995  0.656199992  0.429100007
     0.182500005  0.343800008  0.570900023
     0.042500000  0.543900013  0.211700007
     0.957499981  0.456099987  0.788299978
     0.957499981  0.043900013  0.288299978
     0.042500000  0.956099987  0.711700022
     0.376899987  0.444000006  0.313699991
     0.623100042  0.555999994  0.686300039
     0.623100042  0.944000006  0.186300009
     0.376899987  0.055999994  0.813699961
     0.310400009  0.976599991  0.378300011
     0.689599991  0.023400009  0.621699989
     0.689599991  0.476599991  0.121699989
     0.310400009  0.523400009  0.878300011

  ion indices of the primitive-cell ions
   primitive index   ion index
                 1           1
                 2           2
                 3           3
                 4           4
                 5           5
                 6           6
                 7           7
                 8           8
                 9           9
                10          10
                11          11
                12          12
                13          13
                14          14
                15          15
                16          16
                17          17
                18          18
                19          19
                20          20
                21          21
                22          22
                23          23
                24          24

----------------------------------------------------------------------------------------



 KPOINTS: NbOF3_W11-333-vasp_21-relcw             

Automatic generation of k-mesh.
 Grid dimensions read from file:
 generate k-points for:    4    6    4

 Generating k-lattice:

  Cartesian coordinates                     Fractional coordinates (reciprocal lattice)
     0.031239848 -0.000000000  0.006592268     0.250000000  0.000000000  0.000000000
     0.000000000  0.030823215 -0.000000000     0.000000000  0.166666667  0.000000000
     0.000000000  0.000000000  0.033512054     0.000000000  0.000000000  0.250000000

  Length of vectors
     0.031927826  0.030823215  0.033512054

  Shift w.r.t. Gamma in fractional coordinates (k-lattice)
     0.500000000  0.500000000  0.500000000

 
 Subroutine IBZKPT returns following result:
 ===========================================
 
 Found     24 irreducible k-points:
 
 Following reciprocal coordinates:
            Coordinates               Weight
  0.125000  0.083333  0.125000      4.000000
  0.375000  0.083333  0.125000      4.000000
 -0.375000  0.083333  0.125000      4.000000
 -0.125000  0.083333  0.125000      4.000000
  0.125000  0.250000  0.125000      4.000000
  0.375000  0.250000  0.125000      4.000000
 -0.375000  0.250000  0.125000      4.000000
 -0.125000  0.250000  0.125000      4.000000
  0.125000  0.416667  0.125000      4.000000
  0.375000  0.416667  0.125000      4.000000
 -0.375000  0.416667  0.125000      4.000000
 -0.125000  0.416667  0.125000      4.000000
  0.125000  0.083333  0.375000      4.000000
  0.375000  0.083333  0.375000      4.000000
 -0.375000  0.083333  0.375000      4.000000
 -0.125000  0.083333  0.375000      4.000000
  0.125000  0.250000  0.375000      4.000000
  0.375000  0.250000  0.375000      4.000000
 -0.375000  0.250000  0.375000      4.000000
 -0.125000  0.250000  0.375000      4.000000
  0.125000  0.416667  0.375000      4.000000
  0.375000  0.416667  0.375000      4.000000
 -0.375000  0.416667  0.375000      4.000000
 -0.125000  0.416667  0.375000      4.000000
 
 Following cartesian coordinates:
            Coordinates               Weight
  0.015620  0.015412  0.020052      4.000000
  0.046860  0.015412  0.026644      4.000000
 -0.046860  0.015412  0.006868      4.000000
 -0.015620  0.015412  0.013460      4.000000
  0.015620  0.046235  0.020052      4.000000
  0.046860  0.046235  0.026644      4.000000
 -0.046860  0.046235  0.006868      4.000000
 -0.015620  0.046235  0.013460      4.000000
  0.015620  0.077058  0.020052      4.000000
  0.046860  0.077058  0.026644      4.000000
 -0.046860  0.077058  0.006868      4.000000
 -0.015620  0.077058  0.013460      4.000000
  0.015620  0.015412  0.053564      4.000000
  0.046860  0.015412  0.060156      4.000000
 -0.046860  0.015412  0.040380      4.000000
 -0.015620  0.015412  0.046972      4.000000
  0.015620  0.046235  0.053564      4.000000
  0.046860  0.046235  0.060156      4.000000
 -0.046860  0.046235  0.040380      4.000000
 -0.015620  0.046235  0.046972      4.000000
  0.015620  0.077058  0.053564      4.000000
  0.046860  0.077058  0.060156      4.000000
 -0.046860  0.077058  0.040380      4.000000
 -0.015620  0.077058  0.046972      4.000000
 
 
 Subroutine IBZKPT_HF returns following result:
 ==============================================
 
 Found     96 k-points in 1st BZ
 the following     96 k-points will be used (e.g. in the exchange kernel)
 Following reciprocal coordinates:   # in IRBZ
  0.125000  0.083333  0.125000    0.01041667   1 t-inv F
  0.375000  0.083333  0.125000    0.01041667   2 t-inv F
 -0.375000  0.083333  0.125000    0.01041667   3 t-inv F
 -0.125000  0.083333  0.125000    0.01041667   4 t-inv F
  0.125000  0.250000  0.125000    0.01041667   5 t-inv F
  0.375000  0.250000  0.125000    0.01041667   6 t-inv F
 -0.375000  0.250000  0.125000    0.01041667   7 t-inv F
 -0.125000  0.250000  0.125000    0.01041667   8 t-inv F
  0.125000  0.416667  0.125000    0.01041667   9 t-inv F
  0.375000  0.416667  0.125000    0.01041667  10 t-inv F
 -0.375000  0.416667  0.125000    0.01041667  11 t-inv F
 -0.125000  0.416667  0.125000    0.01041667  12 t-inv F
  0.125000  0.083333  0.375000    0.01041667  13 t-inv F
  0.375000  0.083333  0.375000    0.01041667  14 t-inv F
 -0.375000  0.083333  0.375000    0.01041667  15 t-inv F
 -0.125000  0.083333  0.375000    0.01041667  16 t-inv F
  0.125000  0.250000  0.375000    0.01041667  17 t-inv F
  0.375000  0.250000  0.375000    0.01041667  18 t-inv F
 -0.375000  0.250000  0.375000    0.01041667  19 t-inv F
 -0.125000  0.250000  0.375000    0.01041667  20 t-inv F
  0.125000  0.416667  0.375000    0.01041667  21 t-inv F
  0.375000  0.416667  0.375000    0.01041667  22 t-inv F
 -0.375000  0.416667  0.375000    0.01041667  23 t-inv F
 -0.125000  0.416667  0.375000    0.01041667  24 t-inv F
 -0.125000 -0.083333 -0.125000    0.01041667   1 t-inv F
 -0.125000  0.083333 -0.125000    0.01041667   1 t-inv F
  0.125000 -0.083333  0.125000    0.01041667   1 t-inv F
 -0.375000 -0.083333 -0.125000    0.01041667   2 t-inv F
 -0.375000  0.083333 -0.125000    0.01041667   2 t-inv F
  0.375000 -0.083333  0.125000    0.01041667   2 t-inv F
  0.375000 -0.083333 -0.125000    0.01041667   3 t-inv F
  0.375000  0.083333 -0.125000    0.01041667   3 t-inv F
 -0.375000 -0.083333  0.125000    0.01041667   3 t-inv F
  0.125000 -0.083333 -0.125000    0.01041667   4 t-inv F
  0.125000  0.083333 -0.125000    0.01041667   4 t-inv F
 -0.125000 -0.083333  0.125000    0.01041667   4 t-inv F
 -0.125000 -0.250000 -0.125000    0.01041667   5 t-inv F
 -0.125000  0.250000 -0.125000    0.01041667   5 t-inv F
  0.125000 -0.250000  0.125000    0.01041667   5 t-inv F
 -0.375000 -0.250000 -0.125000    0.01041667   6 t-inv F
 -0.375000  0.250000 -0.125000    0.01041667   6 t-inv F
  0.375000 -0.250000  0.125000    0.01041667   6 t-inv F
  0.375000 -0.250000 -0.125000    0.01041667   7 t-inv F
  0.375000  0.250000 -0.125000    0.01041667   7 t-inv F
 -0.375000 -0.250000  0.125000    0.01041667   7 t-inv F
  0.125000 -0.250000 -0.125000    0.01041667   8 t-inv F
  0.125000  0.250000 -0.125000    0.01041667   8 t-inv F
 -0.125000 -0.250000  0.125000    0.01041667   8 t-inv F
 -0.125000 -0.416667 -0.125000    0.01041667   9 t-inv F
 -0.125000  0.416667 -0.125000    0.01041667   9 t-inv F
  0.125000 -0.416667  0.125000    0.01041667   9 t-inv F
 -0.375000 -0.416667 -0.125000    0.01041667  10 t-inv F
 -0.375000  0.416667 -0.125000    0.01041667  10 t-inv F
  0.375000 -0.416667  0.125000    0.01041667  10 t-inv F
  0.375000 -0.416667 -0.125000    0.01041667  11 t-inv F
  0.375000  0.416667 -0.125000    0.01041667  11 t-inv F
 -0.375000 -0.416667  0.125000    0.01041667  11 t-inv F
  0.125000 -0.416667 -0.125000    0.01041667  12 t-inv F
  0.125000  0.416667 -0.125000    0.01041667  12 t-inv F
 -0.125000 -0.416667  0.125000    0.01041667  12 t-inv F
 -0.125000 -0.083333 -0.375000    0.01041667  13 t-inv F
 -0.125000  0.083333 -0.375000    0.01041667  13 t-inv F
  0.125000 -0.083333  0.375000    0.01041667  13 t-inv F
 -0.375000 -0.083333 -0.375000    0.01041667  14 t-inv F
 -0.375000  0.083333 -0.375000    0.01041667  14 t-inv F
  0.375000 -0.083333  0.375000    0.01041667  14 t-inv F
  0.375000 -0.083333 -0.375000    0.01041667  15 t-inv F
  0.375000  0.083333 -0.375000    0.01041667  15 t-inv F
 -0.375000 -0.083333  0.375000    0.01041667  15 t-inv F
  0.125000 -0.083333 -0.375000    0.01041667  16 t-inv F
  0.125000  0.083333 -0.375000    0.01041667  16 t-inv F
 -0.125000 -0.083333  0.375000    0.01041667  16 t-inv F
 -0.125000 -0.250000 -0.375000    0.01041667  17 t-inv F
 -0.125000  0.250000 -0.375000    0.01041667  17 t-inv F
  0.125000 -0.250000  0.375000    0.01041667  17 t-inv F
 -0.375000 -0.250000 -0.375000    0.01041667  18 t-inv F
 -0.375000  0.250000 -0.375000    0.01041667  18 t-inv F
  0.375000 -0.250000  0.375000    0.01041667  18 t-inv F
  0.375000 -0.250000 -0.375000    0.01041667  19 t-inv F
  0.375000  0.250000 -0.375000    0.01041667  19 t-inv F
 -0.375000 -0.250000  0.375000    0.01041667  19 t-inv F
  0.125000 -0.250000 -0.375000    0.01041667  20 t-inv F
  0.125000  0.250000 -0.375000    0.01041667  20 t-inv F
 -0.125000 -0.250000  0.375000    0.01041667  20 t-inv F
 -0.125000 -0.416667 -0.375000    0.01041667  21 t-inv F
 -0.125000  0.416667 -0.375000    0.01041667  21 t-inv F
  0.125000 -0.416667  0.375000    0.01041667  21 t-inv F
 -0.375000 -0.416667 -0.375000    0.01041667  22 t-inv F
 -0.375000  0.416667 -0.375000    0.01041667  22 t-inv F
  0.375000 -0.416667  0.375000    0.01041667  22 t-inv F
  0.375000 -0.416667 -0.375000    0.01041667  23 t-inv F
  0.375000  0.416667 -0.375000    0.01041667  23 t-inv F
 -0.375000 -0.416667  0.375000    0.01041667  23 t-inv F
  0.125000 -0.416667 -0.375000    0.01041667  24 t-inv F
  0.125000  0.416667 -0.375000    0.01041667  24 t-inv F
 -0.125000 -0.416667  0.375000    0.01041667  24 t-inv F


--------------------------------------------------------------------------------------------------------




 Dimension of arrays:
   k-points           NKPTS =     24   k-points in BZ     NKDIM =     24   number of bands    NBANDS=    115
   number of dos      NEDOS =    301   number of ions     NIONS =     24
   non local maximal  LDIM  =     10   non local SUM 2l+1 LMDIM =     40
   total plane-waves  NPLWV =  73728
   max r-space proj   IRMAX =   2954   max aug-charges    IRDMAX=   7773
   dimension x,y,z NGX =    48 NGY =   32 NGZ =   48
   dimension x,y,z NGXF=    96 NGYF=   64 NGZF=   96
   support grid    NGXF=    96 NGYF=   64 NGZF=   96
   ions per type =               4   4   8   8
   NGX,Y,Z   is equivalent  to a cutoff of   9.97,  9.84, 10.47 a.u.
   NGXF,Y,Z  is equivalent  to a cutoff of  19.94, 19.68, 20.93 a.u.

 SYSTEM =  unknown system                          
 POSCAR =  Sodium difluorodioxoniobate             

 Startparameter for this run:
   NWRITE =      2    write-flag & timer
   PREC   = n         normal or accurate (medium, high low for compatibility)
   ISTART =      0    job   : 0-new  1-cont  2-samecut
   ICHARG =      2    charge: 1-file 2-atom 10-const
   ISPIN  =      1    spin polarized calculation?
   LNONCOLLINEAR =      F non collinear calculations
   LSORBIT =      F    spin-orbit coupling
   INIWAV =      1    electr: 0-lowe 1-rand  2-diag
   LASPH  =      F    aspherical Exc in radial PAW
 Electronic Relaxation 1
   ENCUT  =  550.0 eV  40.42 Ry    6.36 a.u.  15.30 10.34 14.58*2*pi/ulx,y,z
   ENINI  =  550.0     initial cutoff
   ENAUG  =  985.6 eV  augmentation charge cutoff
   NELM   =     60;   NELMIN=  2; NELMDL= -5     # of ELM steps 
   EDIFF  = 0.1E-07   stopping-criterion for ELM
   LREAL  =      T    real-space projection
   NLSPLINE    = F    spline interpolate recip. space projectors
   LCOMPAT=      F    compatible to vasp.4.4
   GGA_COMPAT  = T    GGA compatible to vasp.4.4-vasp.4.6
   LMAXPAW     = -100 max onsite density
   LMAXMIX     =    2 max onsite mixed and CHGCAR
   VOSKOWN=      0    Vosko Wilk Nusair interpolation
   ROPT   =   -0.00050  -0.00050  -0.00050  -0.00050
 Ionic relaxation
   EDIFFG = 0.1E-06   stopping-criterion for IOM
   NSW    =      0    number of steps for IOM
   NBLOCK =      1;   KBLOCK =      1    inner block; outer block 
   IBRION =     -1    ionic relax: 0-MD 1-quasi-New 2-CG
   NFREE  =      0    steps in history (QN), initial steepest desc. (CG)
   ISIF   =      2    stress and relaxation
   IWAVPR =     10    prediction:  0-non 1-charg 2-wave 3-comb
   ISYM   =      2    0-nonsym 1-usesym 2-fastsym
   LCORR  =      T    Harris-Foulkes like correction to forces

   POTIM  = 0.5000    time-step for ionic-motion
   TEIN   =    0.0    initial temperature
   TEBEG  =    0.0;   TEEND  =   0.0 temperature during run
   SMASS  =  -3.00    Nose mass-parameter (am)
   estimated Nose-frequenzy (Omega)   =  0.10E-29 period in steps = 0.13E+47 mass=  -0.146E-26a.u.
   SCALEE = 1.0000    scale energy and forces
   NPACO  =    256;   APACO  = 16.0  distance and # of slots for P.C.
   PSTRESS=    0.0 pullay stress

  Mass of Ions in am
   POMASS =  22.99 92.91 16.00 19.00
  Ionic Valenz
   ZVAL   =   9.00 13.00  6.00  7.00
  Atomic Wigner-Seitz radii
   RWIGS  =  -1.00 -1.00 -1.00 -1.00
  virtual crystal weights 
   VCA    =   1.00  1.00  1.00  1.00
   NELECT =     192.0000    total number of electrons
   NUPDOWN=      -1.0000    fix difference up-down

 DOS related values:
   EMIN   =  10.00;   EMAX   =-10.00  energy-range for DOS
   EFERMI =   0.00
   ISMEAR =     0;   SIGMA  =   0.01  broadening in eV -4-tet -1-fermi 0-gaus

 Electronic relaxation 2 (details)
   IALGO  =     38    algorithm
   LDIAG  =      T    sub-space diagonalisation (order eigenvalues)
   LSUBROT=      F    optimize rotation matrix (better conditioning)
   TURBO    =      0    0=normal 1=particle mesh
   IRESTART =      0    0=no restart 2=restart with 2 vectors
   NREBOOT  =      0    no. of reboots
   NMIN     =      0    reboot dimension
   EREF     =   0.00    reference energy to select bands
   IMIX   =      4    mixing-type and parameters
     AMIX     =   0.40;   BMIX     =  1.00
     AMIX_MAG =   1.60;   BMIX_MAG =  1.00
     AMIN     =   0.10
     WC   =   100.;   INIMIX=   1;  MIXPRE=   1;  MAXMIX= -45

 Intra band minimization:
   WEIMIN = 0.0000     energy-eigenvalue tresh-hold
   EBREAK =  0.22E-10  absolut break condition
   DEPER  =   0.30     relativ break condition  

   TIME   =   0.40     timestep for ELM

  volume/ion in A,a.u.               =      13.45        90.77
  Fermi-wavevector in a.u.,A,eV,Ry     =   1.376771  2.601719 25.789810  1.895498
  Thomas-Fermi vector in A             =   2.501985

 Write flags
   LWAVE        =      T    write WAVECAR
   LDOWNSAMPLE  =      F    k-point downsampling of WAVECAR
   LCHARG       =      T    write CHGCAR
   LVTOT        =      F    write LOCPOT, total local potential
   LVHAR        =      F    write LOCPOT, Hartree potential only
   LELF         =      F    write electronic localiz. function (ELF)
   LORBIT       =      0    0 simple, 1 ext, 2 COOP (PROOUT), +10 PAW based schemes


 Dipole corrections
   LMONO  =      F    monopole corrections only (constant potential shift)
   LDIPOL =      F    correct potential (dipole corrections)
   IDIPOL =      0    1-x, 2-y, 3-z, 4-all directions 
   EPSILON=  1.0000000 bulk dielectric constant

 Exchange correlation treatment:
   GGA     =    --    GGA type
   LEXCH   =     8    internal setting for exchange type
   VOSKOWN=      0    Vosko Wilk Nusair interpolation
   LHFCALC =     F    Hartree Fock is set to
   LHFONE  =     F    Hartree Fock one center treatment
   AEXX    =    0.0000 exact exchange contribution

 Linear response parameters
   LEPSILON=     F    determine dielectric tensor
   LRPA    =     F    only Hartree local field effects (RPA)
   LNABLA  =     F    use nabla operator in PAW spheres
   LVEL    =     F    velocity operator in full k-point grid
   LINTERFAST=   F  fast interpolation
   KINTER  =     0    interpolate to denser k-point grid
   CSHIFT  =0.1000    complex shift for real part using Kramers Kronig
   OMEGAMAX=  -1.0    maximum frequency
   DEG_THRESHOLD= 0.2000000E-02 threshold for treating states as degnerate
   RTIME   =   -0.100 relaxation time in fs
  (WPLASMAI=    0.000 imaginary part of plasma frequency in eV, 0.658/RTIME)
   DFIELD  = 0.0000000 0.0000000 0.0000000 field for delta impulse in time

 Orbital magnetization related:
   ORBITALMAG=     F  switch on orbital magnetization
   LMAGBLOCH =     F  use Bloch summation to obtain orbital mag.
   LCHIMAG   =     T  perturbation theory with respect to B field
   DQ        =  0.003000  dq finite difference perturbation B field
   LGAUGE    =     T  gauge transformation for 0 moment terms
   NUCIND    =     F  nuclear independent calculation        
   MAGPOS    =    0.0000    0.0000    0.0000  position of magnetic moment in nuclear independent calculation
   MAGATOM   =     0  atom on which magnetic dipole is placed
   JATOM     =     0  atom on which magnetic dipole is evaluated
   MAGDIPOL  =    0.0000    0.0000    0.0000 magnetic dipole

 Orbital magnetization related:
   ORBITALMAG=     F  switch on orbital magnetization
   LCHIMAG   =     T  perturbation theory with respect to B field
   DQ        =  0.003000  dq finite difference perturbation B field
   LLRAUG    =     F  two centre corrections for induced B field



--------------------------------------------------------------------------------------------------------


 Static calculation
 charge density and potential will be updated during run
 non-spin polarized calculation
 Variant of blocked Davidson
 Davidson routine will perform the subspace rotation
 perform sub-space diagonalisation
    after iterative eigenvector-optimisation
 modified Broyden-mixing scheme, WC =      100.0
 initial mixing is a Kerker type mixing with AMIX =  0.4000 and BMIX =      1.0000
 Hartree-type preconditioning will be used
 using additional bands           19
 real space projection scheme for non local part
 use partial core corrections
 calculate Harris-corrections to forces   (improved forces if not selfconsistent)
 use gradient corrections 
 use of overlap-Matrix (Vanderbilt PP)
 Gauss-broadening in eV      SIGMA  =   0.01


--------------------------------------------------------------------------------------------------------


  energy-cutoff  :      550.00
  volume of cell :      322.81
      direct lattice vectors                 reciprocal lattice vectors
     8.002599716  0.000000000  0.000000000     0.124959393 -0.000000000  0.026369070
     0.000000000  5.407179832  0.000000000     0.000000000  0.184939290 -0.000000000
    -1.574218012  0.000000000  7.460002379     0.000000000  0.000000000  0.134048215

  length of vectors
     8.002599716  5.407179832  7.624289989     0.127711306  0.184939290  0.134048215



 k-points in units of 2pi/SCALE and weight: NbOF3_W11-333-vasp_21-relcw             
   0.01561992  0.01541161  0.02005216       0.042
   0.04685977  0.01541161  0.02664443       0.042
  -0.04685977  0.01541161  0.00686763       0.042
  -0.01561992  0.01541161  0.01345989       0.042
   0.01561992  0.04623482  0.02005216       0.042
   0.04685977  0.04623482  0.02664443       0.042
  -0.04685977  0.04623482  0.00686763       0.042
  -0.01561992  0.04623482  0.01345989       0.042
   0.01561992  0.07705804  0.02005216       0.042
   0.04685977  0.07705804  0.02664443       0.042
  -0.04685977  0.07705804  0.00686763       0.042
  -0.01561992  0.07705804  0.01345989       0.042
   0.01561992  0.01541161  0.05356421       0.042
   0.04685977  0.01541161  0.06015648       0.042
  -0.04685977  0.01541161  0.04037968       0.042
  -0.01561992  0.01541161  0.04697195       0.042
   0.01561992  0.04623482  0.05356421       0.042
   0.04685977  0.04623482  0.06015648       0.042
  -0.04685977  0.04623482  0.04037968       0.042
  -0.01561992  0.04623482  0.04697195       0.042
   0.01561992  0.07705804  0.05356421       0.042
   0.04685977  0.07705804  0.06015648       0.042
  -0.04685977  0.07705804  0.04037968       0.042
  -0.01561992  0.07705804  0.04697195       0.042

 k-points in reciprocal lattice and weights: NbOF3_W11-333-vasp_21-relcw             
   0.12500000  0.08333333  0.12500000       0.042
   0.37500000  0.08333333  0.12500000       0.042
  -0.37500000  0.08333333  0.12500000       0.042
  -0.12500000  0.08333333  0.12500000       0.042
   0.12500000  0.25000000  0.12500000       0.042
   0.37500000  0.25000000  0.12500000       0.042
  -0.37500000  0.25000000  0.12500000       0.042
  -0.12500000  0.25000000  0.12500000       0.042
   0.12500000  0.41666667  0.12500000       0.042
   0.37500000  0.41666667  0.12500000       0.042
  -0.37500000  0.41666667  0.12500000       0.042
  -0.12500000  0.41666667  0.12500000       0.042
   0.12500000  0.08333333  0.37500000       0.042
   0.37500000  0.08333333  0.37500000       0.042
  -0.37500000  0.08333333  0.37500000       0.042
  -0.12500000  0.08333333  0.37500000       0.042
   0.12500000  0.25000000  0.37500000       0.042
   0.37500000  0.25000000  0.37500000       0.042
  -0.37500000  0.25000000  0.37500000       0.042
  -0.12500000  0.25000000  0.37500000       0.042
   0.12500000  0.41666667  0.37500000       0.042
   0.37500000  0.41666667  0.37500000       0.042
  -0.37500000  0.41666667  0.37500000       0.042
  -0.12500000  0.41666667  0.37500000       0.042

 position of ions in fractional coordinates (direct lattice) 
   0.36660001  0.77999997  0.11560000
   0.63339996  0.22000003  0.88440001
   0.63339996  0.27999997  0.38440001
   0.36660001  0.72000003  0.61559999
   0.15493999  0.26440000  0.31799999
   0.84505999  0.73560000  0.68200004
   0.84505999  0.76440000  0.18200001
   0.15493999  0.23560000  0.81799996
   0.18250001  0.15620001  0.07090000
   0.81749999  0.84380001  0.92909998
   0.81749999  0.65619999  0.42910001
   0.18250001  0.34380001  0.57090002
   0.04250000  0.54390001  0.21170001
   0.95749998  0.45609999  0.78829998
   0.95749998  0.04390001  0.28829998
   0.04250000  0.95609999  0.71170002
   0.37689999  0.44400001  0.31369999
   0.62310004  0.55599999  0.68630004
   0.62310004  0.94400001  0.18630001
   0.37689999  0.05599999  0.81369996
   0.31040001  0.97659999  0.37830001
   0.68959999  0.02340001  0.62169999
   0.68959999  0.47659999  0.12169999
   0.31040001  0.52340001  0.87830001

 position of ions in cartesian coordinates  (Angst):
   2.75177351  4.21760011  0.86237625
   3.67660794  1.18957972  6.59762618
   4.46371694  1.51401020  2.86762499
   1.96466452  3.89316964  4.59237739
   0.73932144  1.42965837  2.37228067
   5.68906010  3.97752146  5.08772193
   6.47616915  4.13324829  1.35772052
  -0.04778752  1.27393154  6.10228164
   1.34886243  0.84460153  0.52891418
   5.07951931  4.56257839  6.93108804
   5.86662827  3.54819136  3.20108707
   0.56175339  1.85898847  4.25891553
   0.00684852  2.94096518  1.57928256
   6.42153305  2.46621465  5.88071971
   7.20864206  0.23737526  2.15071852
  -0.78026051  5.16980457  5.30928386
   2.52234755  2.40078788  2.34020268
   3.90603434  3.00639195  5.11979992
   4.69314339  5.10437779  1.38979851
   1.73523859  0.30280204  6.07020364
   1.88848033  5.28065178  2.82211898
   4.53990137  0.12652806  4.63788340
   5.32701038  2.57706186  0.90788221
   1.10137133  2.83011797  6.55212017



--------------------------------------------------------------------------------------------------------


 k-point   1 :   0.1250 0.0833 0.1250  plane waves:    9479
 k-point   2 :   0.3750 0.0833 0.1250  plane waves:    9438
 k-point   3 :  -0.3750 0.0833 0.1250  plane waves:    9451
 k-point   4 :  -0.1250 0.0833 0.1250  plane waves:    9473
 k-point   5 :   0.1250 0.2500 0.1250  plane waves:    9464
 k-point   6 :   0.3750 0.2500 0.1250  plane waves:    9451
 k-point   7 :  -0.3750 0.2500 0.1250  plane waves:    9459
 k-point   8 :  -0.1250 0.2500 0.1250  plane waves:    9455
 k-point   9 :   0.1250 0.4167 0.1250  plane waves:    9455
 k-point  10 :   0.3750 0.4167 0.1250  plane waves:    9466
 k-point  11 :  -0.3750 0.4167 0.1250  plane waves:    9468
 k-point  12 :  -0.1250 0.4167 0.1250  plane waves:    9441
 k-point  13 :   0.1250 0.0833 0.3750  plane waves:    9462
 k-point  14 :   0.3750 0.0833 0.3750  plane waves:    9447
 k-point  15 :  -0.3750 0.0833 0.3750  plane waves:    9451
 k-point  16 :  -0.1250 0.0833 0.3750  plane waves:    9464
 k-point  17 :   0.1250 0.2500 0.3750  plane waves:    9443
 k-point  18 :   0.3750 0.2500 0.3750  plane waves:    9443
 k-point  19 :  -0.3750 0.2500 0.3750  plane waves:    9460
 k-point  20 :  -0.1250 0.2500 0.3750  plane waves:    9450
 k-point  21 :   0.1250 0.4167 0.3750  plane waves:    9454
 k-point  22 :   0.3750 0.4167 0.3750  plane waves:    9439
 k-point  23 :  -0.3750 0.4167 0.3750  plane waves:    9441
 k-point  24 :  -0.1250 0.4167 0.3750  plane waves:    9446

 maximum and minimum number of plane-waves per node :      9479     9438

 maximum number of plane-waves:      9479
 maximum index in each direction: 
   IXMAX=   15   IYMAX=   10   IZMAX=   14
   IXMIN=  -15   IYMIN=  -10   IZMIN=  -14


 serial   3D FFT for wavefunctions
 parallel 3D FFT for charge:
    minimum data exchange during FFTs selected (reduces bandwidth)


 total amount of memory used by VASP MPI-rank0   544498. kBytes
=======================================================================

   base      :      30000. kBytes
   nonlr-proj:       9954. kBytes
   fftplans  :      20492. kBytes
   grid      :      46129. kBytes
   one-center:       1843. kBytes
   wavefun   :     436080. kBytes

     INWAV:  cpu time    0.0000: real time    0.0000
 Broyden mixing: mesh for mixing (old mesh)
   NGX = 31   NGY = 21   NGZ = 29
  (NGX  = 96   NGY  = 64   NGZ  = 96)
  gives a total of  18879 points

 initial charge density was supplied:
 charge density of overlapping atoms calculated
 number of electron     192.0000000 magnetization 
 keeping initial charge density in first step


--------------------------------------------------------------------------------------------------------


 Maximum index for non-local projection operator         2815
 Maximum index for augmentation-charges         7360 (set IRDMAX)


--------------------------------------------------------------------------------------------------------


 First call to EWALD:  gamma=   0.258
 Maximum number of real-space cells 2x 3x 3
 Maximum number of reciprocal cells 3x 2x 3

    FEWALD:  cpu time    0.0057: real time    0.0057


--------------------------------------- Iteration      1(   1)  ---------------------------------------


    POTLOK:  cpu time    0.4072: real time    0.4072
    SETDIJ:  cpu time    0.0438: real time    0.0438
     EDDAV:  cpu time   53.1392: real time   53.1447
       DOS:  cpu time    0.0023: real time    0.0023
    --------------------------------------------
      LOOP:  cpu time   53.5925: real time   53.5980

 eigenvalue-minimisations  :  5552
 total energy-change (2. order) : 0.3511365E+04  (-0.1033143E+05)
 number of electron     192.0000000 magnetization 
 augmentation part      192.0000000 magnetization 

 Free energy of the ion-electron system (eV)
  ---------------------------------------------------
  alpha Z        PSCENC =       630.11505249
  Ewald energy   TEWEN  =    -12611.34571933
  -Hartree energ DENC   =     -5880.19477837
  -exchange      EXHF   =         0.00000000
  -V(xc)+E(xc)   XCENC  =       949.15802716
  PAW double counting   =     15344.41123578   -16066.60662730
  entropy T*S    EENTRO =        -0.00041567
  eigenvalues    EBANDS =       971.50534336
  atomic energy  EATOM  =     20174.32265256
  Solvation  Ediel_sol  =         0.00000000
  ---------------------------------------------------
  free energy    TOTEN  =      3511.36477069 eV

  energy without entropy =     3511.36518636  energy(sigma->0) =     3511.36497853


--------------------------------------------------------------------------------------------------------




--------------------------------------- Iteration      1(   2)  ---------------------------------------


     EDDAV:  cpu time   56.6944: real time   56.7003
       DOS:  cpu time    0.0017: real time    0.0017
    --------------------------------------------
      LOOP:  cpu time   56.6961: real time   56.7020

 eigenvalue-minimisations  :  5537
 total energy-change (2. order) :-0.3084769E+04  (-0.2895846E+04)
 number of electron     192.0000000 magnetization 
 augmentation part      192.0000000 magnetization 

 Free energy of the ion-electron system (eV)
  ---------------------------------------------------
  alpha Z        PSCENC =       630.11505249
  Ewald energy   TEWEN  =    -12611.34571933
  -Hartree energ DENC   =     -5880.19477837
  -exchange      EXHF   =         0.00000000
  -V(xc)+E(xc)   XCENC  =       949.15802716
  PAW double counting   =     15344.41123578   -16066.60662730
  entropy T*S    EENTRO =        -0.00000003
  eigenvalues    EBANDS =     -2113.26375907
  atomic energy  EATOM  =     20174.32265256
  Solvation  Ediel_sol  =         0.00000000
  ---------------------------------------------------
  free energy    TOTEN  =       426.59608390 eV

  energy without entropy =      426.59608393  energy(sigma->0) =      426.59608392


--------------------------------------------------------------------------------------------------------




--------------------------------------- Iteration      1(   3)  ---------------------------------------


     EDDAV:  cpu time   64.9784: real time   64.9846
       DOS:  cpu time    0.0007: real time    0.0007
    --------------------------------------------
      LOOP:  cpu time   64.9791: real time   64.9852

 eigenvalue-minimisations  :  8739
 total energy-change (2. order) :-0.6209139E+03  (-0.6074683E+03)
 number of electron     192.0000000 magnetization 
 augmentation part      192.0000000 magnetization 

 Free energy of the ion-electron system (eV)
  ---------------------------------------------------
  alpha Z        PSCENC =       630.11505249
  Ewald energy   TEWEN  =    -12611.34571933
  -Hartree energ DENC   =     -5880.19477837
  -exchange      EXHF   =         0.00000000
  -V(xc)+E(xc)   XCENC  =       949.15802716
  PAW double counting   =     15344.41123578   -16066.60662730
  entropy T*S    EENTRO =        -0.00000000
  eigenvalues    EBANDS =     -2734.17762447
  atomic energy  EATOM  =     20174.32265256
  Solvation  Ediel_sol  =         0.00000000
  ---------------------------------------------------
  free energy    TOTEN  =      -194.31778147 eV

  energy without entropy =     -194.31778147  energy(sigma->0) =     -194.31778147


--------------------------------------------------------------------------------------------------------




--------------------------------------- Iteration      1(   4)  ---------------------------------------


     EDDAV:  cpu time   67.5330: real time   67.5394
       DOS:  cpu time    0.0006: real time    0.0006
    --------------------------------------------
      LOOP:  cpu time   67.5336: real time   67.5400

 eigenvalue-minimisations  :  8560
 total energy-change (2. order) :-0.3576733E+02  (-0.3556271E+02)
 number of electron     192.0000000 magnetization 
 augmentation part      192.0000000 magnetization 

 Free energy of the ion-electron system (eV)
  ---------------------------------------------------
  alpha Z        PSCENC =       630.11505249
  Ewald energy   TEWEN  =    -12611.34571933
  -Hartree energ DENC   =     -5880.19477837
  -exchange      EXHF   =         0.00000000
  -V(xc)+E(xc)   XCENC  =       949.15802716
  PAW double counting   =     15344.41123578   -16066.60662730
  entropy T*S    EENTRO =        -0.00000000
  eigenvalues    EBANDS =     -2769.94495073
  atomic energy  EATOM  =     20174.32265256
  Solvation  Ediel_sol  =         0.00000000
  ---------------------------------------------------
  free energy    TOTEN  =      -230.08510773 eV

  energy without entropy =     -230.08510773  energy(sigma->0) =     -230.08510773


--------------------------------------------------------------------------------------------------------




--------------------------------------- Iteration      1(   5)  ---------------------------------------


     EDDAV:  cpu time   68.7088: real time   68.7155
       DOS:  cpu time    0.0006: real time    0.0006
    CHARGE:  cpu time    2.3461: real time    2.3463
    MIXING:  cpu time    0.0090: real time    0.0090
    --------------------------------------------
      LOOP:  cpu time   71.0646: real time   71.0715

 eigenvalue-minimisations  :  8736
 total energy-change (2. order) :-0.9818670E+00  (-0.9768280E+00)
 number of electron     192.0000021 magnetization 
 augmentation part       28.9895124 magnetization 

 Broyden mixing:
  rms(total) = 0.49789E+01    rms(broyden)= 0.49785E+01
  rms(prec ) = 0.67544E+01
  weight for this iteration     100.00

 Free energy of the ion-electron system (eV)
  ---------------------------------------------------
  alpha Z        PSCENC =       630.11505249
  Ewald energy   TEWEN  =    -12611.34571933
  -Hartree energ DENC   =     -5880.19477837
  -exchange      EXHF   =         0.00000000
  -V(xc)+E(xc)   XCENC  =       949.15802716
  PAW double counting   =     15344.41123578   -16066.60662730
  entropy T*S    EENTRO =        -0.00000000
  eigenvalues    EBANDS =     -2770.92681771
  atomic energy  EATOM  =     20174.32265256
  Solvation  Ediel_sol  =         0.00000000
  ---------------------------------------------------
  free energy    TOTEN  =      -231.06697471 eV

  energy without entropy =     -231.06697471  energy(sigma->0) =     -231.06697471


--------------------------------------------------------------------------------------------------------




--------------------------------------- Iteration      1(   6)  ---------------------------------------


    POTLOK:  cpu time    0.2996: real time    0.2996
    SETDIJ:  cpu time    0.0397: real time    0.0397
     EDDAV:  cpu time   71.2936: real time   71.3004
       DOS:  cpu time    0.0006: real time    0.0006
    CHARGE:  cpu time    2.4135: real time    2.4138
    MIXING:  cpu time    0.0085: real time    0.0085
    --------------------------------------------
      LOOP:  cpu time   74.0555: real time   74.0626

 eigenvalue-minimisations  :  9216
 total energy-change (2. order) : 0.4843030E+02  (-0.2001040E+02)
 number of electron     192.0000022 magnetization 
 augmentation part       24.9974593 magnetization 

 Broyden mixing:
  rms(total) = 0.18329E+01    rms(broyden)= 0.18324E+01
  rms(prec ) = 0.22209E+01
  weight for this iteration     100.00

 eigenvalues of (default mixing * dielectric matrix)
  average eigenvalue GAMMA=   0.9678
  0.9678

 Free energy of the ion-electron system (eV)
  ---------------------------------------------------
  alpha Z        PSCENC =       630.11505249
  Ewald energy   TEWEN  =    -12611.34571933
  -Hartree energ DENC   =     -5999.00757067
  -exchange      EXHF   =         0.00000000
  -V(xc)+E(xc)   XCENC  =       962.97625808
  PAW double counting   =     16244.52468227   -16978.59282242
  entropy T*S    EENTRO =        -0.00000000
  eigenvalues    EBANDS =     -2605.62920615
  atomic energy  EATOM  =     20174.32265256
  Solvation  Ediel_sol  =         0.00000000
  ---------------------------------------------------
  free energy    TOTEN  =      -182.63667316 eV

  energy without entropy =     -182.63667316  energy(sigma->0) =     -182.63667316


--------------------------------------------------------------------------------------------------------




--------------------------------------- Iteration      1(   7)  ---------------------------------------


    POTLOK:  cpu time    0.3014: real time    0.3015
    SETDIJ:  cpu time    0.0400: real time    0.0400
     EDDAV:  cpu time   66.1582: real time   66.1646
       DOS:  cpu time    0.0006: real time    0.0006
    CHARGE:  cpu time    2.3838: real time    2.3840
    MIXING:  cpu time    0.0090: real time    0.0090
    --------------------------------------------
      LOOP:  cpu time   68.8931: real time   68.8997

 eigenvalue-minimisations  :  8024
 total energy-change (2. order) : 0.3456194E+00  (-0.3227972E+01)
 number of electron     192.0000020 magnetization 
 augmentation part       25.6403985 magnetization 

 Broyden mixing:
  rms(total) = 0.39690E+01    rms(broyden)= 0.39690E+01
  rms(prec ) = 0.40077E+01
  weight for this iteration     100.00

 eigenvalues of (default mixing * dielectric matrix)
  average eigenvalue GAMMA=   0.7167
  0.8512  0.5821

 Free energy of the ion-electron system (eV)
  ---------------------------------------------------
  alpha Z        PSCENC =       630.11505249
  Ewald energy   TEWEN  =    -12611.34571933
  -Hartree energ DENC   =     -5946.45927734
  -exchange      EXHF   =         0.00000000
  -V(xc)+E(xc)   XCENC  =       959.66702196
  PAW double counting   =     16462.02523639   -17192.04041602
  entropy T*S    EENTRO =        -0.00000000
  eigenvalues    EBANDS =     -2658.57560443
  atomic energy  EATOM  =     20174.32265256
  Solvation  Ediel_sol  =         0.00000000
  ---------------------------------------------------
  free energy    TOTEN  =      -182.29105372 eV

  energy without entropy =     -182.29105372  energy(sigma->0) =     -182.29105372


--------------------------------------------------------------------------------------------------------




--------------------------------------- Iteration      1(   8)  ---------------------------------------


    POTLOK:  cpu time    0.3155: real time    0.3155
    SETDIJ:  cpu time    0.0421: real time    0.0421
     EDDAV:  cpu time   68.9500: real time   68.9566
       DOS:  cpu time    0.0007: real time    0.0007
    CHARGE:  cpu time    2.6831: real time    2.6833
    MIXING:  cpu time    0.0112: real time    0.0112
    --------------------------------------------
      LOOP:  cpu time   72.0026: real time   72.0094

 eigenvalue-minimisations  :  8736
 total energy-change (2. order) :-0.3894451E+00  (-0.1932429E+00)
 number of electron     192.0000019 magnetization 
 augmentation part       25.4694135 magnetization 

 Broyden mixing:
  rms(total) = 0.50316E+01    rms(broyden)= 0.50316E+01
  rms(prec ) = 0.50733E+01
  weight for this iteration     100.00

 eigenvalues of (default mixing * dielectric matrix)
  average eigenvalue GAMMA=   1.1152
  1.8864  0.7296  0.7296

 Free energy of the ion-electron system (eV)
  ---------------------------------------------------
  alpha Z        PSCENC =       630.11505249
  Ewald energy   TEWEN  =    -12611.34571933
  -Hartree energ DENC   =     -5953.67062370
  -exchange      EXHF   =         0.00000000
  -V(xc)+E(xc)   XCENC  =       960.04818301
  PAW double counting   =     16357.00252176   -17087.42203979
  entropy T*S    EENTRO =        -0.00000000
  eigenvalues    EBANDS =     -2651.73052587
  atomic energy  EATOM  =     20174.32265256
  Solvation  Ediel_sol  =         0.00000000
  ---------------------------------------------------
  free energy    TOTEN  =      -182.68049887 eV

  energy without entropy =     -182.68049887  energy(sigma->0) =     -182.68049887


--------------------------------------------------------------------------------------------------------




--------------------------------------- Iteration      1(   9)  ---------------------------------------


    POTLOK:  cpu time    0.3777: real time    0.3777
    SETDIJ:  cpu time    0.0457: real time    0.0457
     EDDAV:  cpu time   70.1329: real time   70.1396
       DOS:  cpu time    0.0007: real time    0.0007
    CHARGE:  cpu time    2.4487: real time    2.4490
    MIXING:  cpu time    0.0097: real time    0.0097
    --------------------------------------------
      LOOP:  cpu time   73.0154: real time   73.0223

 eigenvalue-minimisations  :  9120
 total energy-change (2. order) : 0.2169568E+00  (-0.2937256E+00)
 number of electron     192.0000017 magnetization 
 augmentation part       25.4187421 magnetization 

 Broyden mixing:
  rms(total) = 0.21247E+01    rms(broyden)= 0.21247E+01
  rms(prec ) = 0.21760E+01
  weight for this iteration     100.00

 eigenvalues of (default mixing * dielectric matrix)
  average eigenvalue GAMMA=   1.0834
  1.5565  1.5565  0.8044  0.4161

 Free energy of the ion-electron system (eV)
  ---------------------------------------------------
  alpha Z        PSCENC =       630.11505249
  Ewald energy   TEWEN  =    -12611.34571933
  -Hartree energ DENC   =     -5935.73164800
  -exchange      EXHF   =         0.00000000
  -V(xc)+E(xc)   XCENC  =       959.70637705
  PAW double counting   =     17021.11644136   -17750.81106616
  entropy T*S    EENTRO =        -0.00000000
  eigenvalues    EBANDS =     -2669.83563199
  atomic energy  EATOM  =     20174.32265256
  Solvation  Ediel_sol  =         0.00000000
  ---------------------------------------------------
  free energy    TOTEN  =      -182.46354202 eV

  energy without entropy =     -182.46354202  energy(sigma->0) =     -182.46354202


--------------------------------------------------------------------------------------------------------




--------------------------------------- Iteration      1(  10)  ---------------------------------------


    POTLOK:  cpu time    0.3141: real time    0.3142
    SETDIJ:  cpu time    0.0405: real time    0.0406
     EDDAV:  cpu time   73.4632: real time   73.4703
       DOS:  cpu time    0.0008: real time    0.0008
    CHARGE:  cpu time    2.4355: real time    2.4358
    MIXING:  cpu time    0.0102: real time    0.0101
    --------------------------------------------
      LOOP:  cpu time   76.2643: real time   76.2717

 eigenvalue-minimisations  :  9240
 total energy-change (2. order) : 0.3859264E+00  (-0.6271808E-01)
 number of electron     192.0000018 magnetization 
 augmentation part       25.4632480 magnetization 

 Broyden mixing:
  rms(total) = 0.24096E+01    rms(broyden)= 0.24096E+01
  rms(prec ) = 0.24227E+01
  weight for this iteration     100.00

 eigenvalues of (default mixing * dielectric matrix)
  average eigenvalue GAMMA=   1.0914
  2.1452  1.4667  0.8678  0.4885  0.4885

 Free energy of the ion-electron system (eV)
  ---------------------------------------------------
  alpha Z        PSCENC =       630.11505249
  Ewald energy   TEWEN  =    -12611.34571933
  -Hartree energ DENC   =     -5932.54060162
  -exchange      EXHF   =         0.00000000
  -V(xc)+E(xc)   XCENC  =       959.20516831
  PAW double counting   =     17043.72931860   -17772.63473076
  entropy T*S    EENTRO =        -0.00000000
  eigenvalues    EBANDS =     -2672.92875585
  atomic energy  EATOM  =     20174.32265256
  Solvation  Ediel_sol  =         0.00000000
  ---------------------------------------------------
  free energy    TOTEN  =      -182.07761560 eV

  energy without entropy =     -182.07761560  energy(sigma->0) =     -182.07761560


--------------------------------------------------------------------------------------------------------




--------------------------------------- Iteration      1(  11)  ---------------------------------------


    POTLOK:  cpu time    0.3144: real time    0.3144
    SETDIJ:  cpu time    0.0409: real time    0.0409
     EDDAV:  cpu time   66.9030: real time   66.9094
       DOS:  cpu time    0.0007: real time    0.0007
    CHARGE:  cpu time    2.4045: real time    2.4048
    MIXING:  cpu time    0.0107: real time    0.0107
    --------------------------------------------
      LOOP:  cpu time   69.6742: real time   69.6809

 eigenvalue-minimisations  :  8192
 total energy-change (2. order) : 0.3944813E-01  (-0.3398223E-01)
 number of electron     192.0000019 magnetization 
 augmentation part       25.5357127 magnetization 

 Broyden mixing:
  rms(total) = 0.17783E+01    rms(broyden)= 0.17783E+01
  rms(prec ) = 0.17833E+01
  weight for this iteration     100.00

 eigenvalues of (default mixing * dielectric matrix)
  average eigenvalue GAMMA=   1.0012
  2.2025  1.3732  0.8690  0.4266  0.5678  0.5678

 Free energy of the ion-electron system (eV)
  ---------------------------------------------------
  alpha Z        PSCENC =       630.11505249
  Ewald energy   TEWEN  =    -12611.34571933
  -Hartree energ DENC   =     -5931.28290253
  -exchange      EXHF   =         0.00000000
  -V(xc)+E(xc)   XCENC  =       959.08320157
  PAW double counting   =     17160.40509099   -17888.81072205
  entropy T*S    EENTRO =        -0.00000000
  eigenvalues    EBANDS =     -2674.52482116
  atomic energy  EATOM  =     20174.32265256
  Solvation  Ediel_sol  =         0.00000000
  ---------------------------------------------------
  free energy    TOTEN  =      -182.03816746 eV

  energy without entropy =     -182.03816746  energy(sigma->0) =     -182.03816746


--------------------------------------------------------------------------------------------------------




--------------------------------------- Iteration      1(  12)  ---------------------------------------


    POTLOK:  cpu time    0.3146: real time    0.3146
    SETDIJ:  cpu time    0.0412: real time    0.0412
     EDDAV:  cpu time   70.3436: real time   70.3508
       DOS:  cpu time    0.0007: real time    0.0007
    CHARGE:  cpu time    2.4053: real time    2.4056
    MIXING:  cpu time    0.0110: real time    0.0110
    --------------------------------------------
      LOOP:  cpu time   73.1164: real time   73.1239

 eigenvalue-minimisations  :  8736
 total energy-change (2. order) :-0.1742911E-01  (-0.1559214E-02)
 number of electron     192.0000019 magnetization 
 augmentation part       25.5275420 magnetization 

 Broyden mixing:
  rms(total) = 0.15809E+01    rms(broyden)= 0.15809E+01
  rms(prec ) = 0.15884E+01
  weight for this iteration     100.00

 eigenvalues of (default mixing * dielectric matrix)
  average eigenvalue GAMMA=   1.1863
  2.3407  1.5024  1.5024  0.9023  0.9023  0.5772  0.5772

 Free energy of the ion-electron system (eV)
  ---------------------------------------------------
  alpha Z        PSCENC =       630.11505249
  Ewald energy   TEWEN  =    -12611.34571933
  -Hartree energ DENC   =     -5932.83888312
  -exchange      EXHF   =         0.00000000
  -V(xc)+E(xc)   XCENC  =       959.19221622
  PAW double counting   =     17175.14712742   -17903.52488894
  entropy T*S    EENTRO =        -0.00000000
  eigenvalues    EBANDS =     -2673.12315389
  atomic energy  EATOM  =     20174.32265256
  Solvation  Ediel_sol  =         0.00000000
  ---------------------------------------------------
  free energy    TOTEN  =      -182.05559658 eV

  energy without entropy =     -182.05559658  energy(sigma->0) =     -182.05559658


--------------------------------------------------------------------------------------------------------




--------------------------------------- Iteration      1(  13)  ---------------------------------------


    POTLOK:  cpu time    0.3135: real time    0.3135
    SETDIJ:  cpu time    0.0417: real time    0.0417
     EDDAV:  cpu time   70.2961: real time   70.3029
       DOS:  cpu time    0.0006: real time    0.0006
    CHARGE:  cpu time    2.3680: real time    2.3682
    MIXING:  cpu time    0.0115: real time    0.0115
    --------------------------------------------
      LOOP:  cpu time   73.0314: real time   73.0384

 eigenvalue-minimisations  :  8584
 total energy-change (2. order) : 0.4968562E-02  (-0.7553774E-03)
 number of electron     192.0000019 magnetization 
 augmentation part       25.5211528 magnetization 

 Broyden mixing:
  rms(total) = 0.92634E+00    rms(broyden)= 0.92634E+00
  rms(prec ) = 0.93775E+00
  weight for this iteration     100.00

 eigenvalues of (default mixing * dielectric matrix)
  average eigenvalue GAMMA=   1.2047
  2.3034  2.1532  1.4663  1.1198  0.8176  0.5124  0.6323  0.6323

 Free energy of the ion-electron system (eV)
  ---------------------------------------------------
  alpha Z        PSCENC =       630.11505249
  Ewald energy   TEWEN  =    -12611.34571933
  -Hartree energ DENC   =     -5934.80987471
  -exchange      EXHF   =         0.00000000
  -V(xc)+E(xc)   XCENC  =       959.30147724
  PAW double counting   =     17251.91299894   -17980.04832520
  entropy T*S    EENTRO =        -0.00000000
  eigenvalues    EBANDS =     -2671.49889002
  atomic energy  EATOM  =     20174.32265256
  Solvation  Ediel_sol  =         0.00000000
  ---------------------------------------------------
  free energy    TOTEN  =      -182.05062801 eV

  energy without entropy =     -182.05062801  energy(sigma->0) =     -182.05062801


--------------------------------------------------------------------------------------------------------




[...]
    18     -0.207718E+01     -0.194364E+01     -0.642171E+02
    19     -0.907804E+00      0.214390E+01     -0.631277E+02
    20     -0.907833E+00      0.214381E+01     -0.631276E+02
    21     -0.708897E+01      0.108384E+02     -0.511210E+02
    22     -0.708898E+01      0.108383E+02     -0.511211E+02
    23     -0.564081E+01     -0.972982E+01     -0.496103E+02
    24     -0.564081E+01     -0.972981E+01     -0.496102E+02

 -------------------------------------------------------------
   one center paramagnetic contribution
 -------------------------------------------------------------
     1     -0.267803E+01     -0.573185E+01      0.575668E+02
     2     -0.267805E+01     -0.573186E+01      0.575668E+02
     3     -0.280959E+01      0.649790E+01      0.587973E+02
     4     -0.280962E+01      0.649789E+01      0.587973E+02
     5     -0.410776E+02     -0.754522E+02      0.290054E+04
     6     -0.410790E+02     -0.754516E+02      0.290055E+04
     7     -0.391659E+02      0.768171E+02      0.289611E+04
     8     -0.391643E+02      0.768194E+02      0.289610E+04
     9      0.590068E+02      0.196850E+02      0.323052E+03
    10      0.590069E+02      0.196843E+02      0.323051E+03
    11      0.623485E+02     -0.207681E+02      0.278986E+03
    12      0.623483E+02     -0.207675E+02      0.278985E+03
    13     -0.812242E+02      0.124130E+03      0.722054E+03
    14     -0.812249E+02      0.124130E+03      0.722052E+03
    15     -0.709953E+02     -0.116624E+03      0.728176E+03
    16     -0.709954E+02     -0.116624E+03      0.728176E+03
    17     -0.918048E+01     -0.921651E+01      0.284342E+03
    18     -0.918060E+01     -0.921625E+01      0.284343E+03
    19     -0.321347E+01      0.108215E+02      0.289276E+03
    20     -0.321360E+01      0.108211E+02      0.289276E+03
    21     -0.354672E+02      0.498045E+02      0.347242E+03
    22     -0.354672E+02      0.498041E+02      0.347241E+03
    23     -0.292917E+02     -0.436935E+02      0.354019E+03
    24     -0.292917E+02     -0.436935E+02      0.354019E+03

 -------------------------------------------------------------
   one center diamagnetic contribution
 -------------------------------------------------------------
     1      0.561083E-02      0.337511E-01     -0.153664E+03
     2      0.561071E-02      0.337512E-01     -0.153664E+03
     3      0.520745E-02     -0.338043E-01     -0.153665E+03
     4      0.520737E-02     -0.338044E-01     -0.153665E+03
     5      0.131693E-01     -0.218620E-02      0.148966E+02
     6      0.131691E-01     -0.218594E-02      0.148966E+02
     7      0.113739E-01      0.326836E-02      0.148962E+02
     8      0.113735E-01      0.326796E-02      0.148962E+02
     9      0.115542E+00     -0.614928E-01     -0.332487E+02
    10      0.115542E+00     -0.614930E-01     -0.332487E+02
    11      0.113465E+00      0.576999E-01     -0.332441E+02
    12      0.113464E+00      0.576999E-01     -0.332441E+02
    13     -0.266678E-01     -0.650515E-01     -0.332772E+02
    14     -0.266683E-01     -0.650515E-01     -0.332773E+02
    15     -0.203656E-01      0.624544E-01     -0.332771E+02
    16     -0.203655E-01      0.624542E-01     -0.332771E+02
    17     -0.209019E-02      0.238525E-01     -0.417795E+02
    18     -0.209055E-02      0.238525E-01     -0.417795E+02
    19     -0.104908E-02     -0.231165E-01     -0.417785E+02
    20     -0.104974E-02     -0.231169E-01     -0.417785E+02
    21     -0.460118E-01      0.106848E+00     -0.418166E+02
    22     -0.460119E-01      0.106848E+00     -0.418166E+02
    23     -0.444071E-01     -0.109169E+00     -0.418099E+02
    24     -0.444074E-01     -0.109170E+00     -0.418099E+02
 -------------------------------------------------------------
 -------------------------------------------------------------


 -------------------------------------------------------------
  Absolute Chemical Shift tensors
 -------------------------------------------------------------
  UNSYMMETRIZED TENSORS 
 ion    1
       -184.181952         -5.458578         -3.364503
         -5.504198       -189.830401         -7.961925
         -2.378482         -6.540888       -186.221387
 ion    2
       -184.181920         -5.458601         -3.364524
         -5.504217       -189.830386         -7.961885
         -2.378499         -6.540901       -186.221330
 ion    3
       -183.275629          5.357138         -2.737963
          4.328118       -189.054323          8.987556
         -2.486345          7.199212       -184.918690
 ion    4
       -183.275557          5.357071         -2.737929
          4.328091       -189.054316          8.987539
         -2.486365          7.199198       -184.918722
 ion    5
       3345.684555         64.797755        -58.567889
        -32.090995       3258.429501         43.291747
        -43.220894        -82.310977       2954.127325
 ion    6
       3345.684877         64.793156        -58.567509
        -32.090067       3258.435406         43.292326
        -43.222249        -82.310486       2954.133477
 ion    7
       3423.893099        -28.398893        -11.794955
         42.163306       3298.518753        -24.678607
        -41.225703         83.454916       2948.708530
 ion    8
       3423.895778        -28.403089        -11.793689
         42.161034       3298.520926        -24.674653
        -41.224062         83.457339       2948.700793
 ion    9
        660.687893        -29.631826         56.781950
        -11.869170        765.320182         91.353728
         69.658404         23.743165        257.086420
 ion   10
        660.682642        -29.632345         56.781882
        -11.869162        765.314328         91.352289
         69.658476         23.742418        257.084822
 ion   11
        701.106791          7.368459         74.156185
          7.542207        761.691581        -82.480209
         73.770649        -24.836640        204.314824
 ion   12
        701.101338          7.369786         74.154836
          7.543241        761.684632        -82.478873
         73.770398        -24.835917        204.313072
 ion   13
        537.811202        215.799599       -107.401014
        194.158554        444.492618        145.905157
        -96.239333        145.951063        729.964404
 ion   14
        537.810012        215.797819       -107.400885
        194.156810        444.490937        145.904436
        -96.240230        145.950401        729.962041
 ion   15
        524.367779       -230.633343       -103.924665
       -195.046696        446.004407       -144.890968
        -84.080569       -136.779934        737.365395
 ion   16
        524.367378       -230.632192       -103.924213
       -195.046068        446.004094       -144.890844
        -84.080699       -136.780246        737.364757
 ion   17
         61.690759        -34.043710          3.541432
        -25.481809        123.298350        -15.827764
        -11.259713        -11.136358        178.345508
 ion   18
         61.691382        -34.043073          3.541451
        -25.480990        123.298088        -15.827725
        -11.259872        -11.136036        178.346546
 ion   19
         61.652605         41.607490         -0.381527
         27.160832        120.983979          9.610958
         -4.122325         12.942284        184.369463
 ion   20
         61.651800         41.607217         -0.381288
         27.160670        120.982644          9.611024
         -4.122481         12.941800        184.369684
 ion   21
        135.390469         29.501358        -24.976346
         36.056957         99.636571         25.862742
        -42.602160         60.749690        254.304111
 ion   22
        135.389703         29.501193        -24.976990
         36.056276         99.636135         25.862724
        -42.602194         60.749169        254.303524
 ion   23
        121.102383        -41.734421        -11.092420
        -44.486612         98.511452        -32.003086
        -34.976924        -53.532491        262.598539
 ion   24
        121.102648        -41.733681        -11.092157
        -44.485657         98.511555        -32.002966
        -34.976966        -53.532457        262.599015
  SYMMETRIZED TENSORS 
 ion    1
       -183.728765         -5.407847         -3.051230
         -4.916156       -189.442357         -8.474727
         -2.432423         -6.870050       -185.570032
 ion    2
       -183.728765         -5.407847         -3.051230
         -4.916156       -189.442357         -8.474727
         -2.432423         -6.870050       -185.570032
 ion    3
       -183.728765          5.407847         -3.051230
          4.916156       -189.442357          8.474727
         -2.432423          6.870050       -185.570032
 ion    4
       -183.728765          5.407847         -3.051230
          4.916156       -189.442357          8.474727
         -2.432423          6.870050       -185.570032
 ion    5
       3384.789577         46.598223        -35.181011
        -37.126351       3278.476146         33.984333
        -42.223227        -82.883430       2951.417531
 ion    6
       3384.789577         46.598223        -35.181011
        -37.126351       3278.476146         33.984333
        -42.223227        -82.883430       2951.417531
 ion    7
       3384.789577        -46.598223        -35.181011
         37.126351       3278.476146        -33.984333
        -42.223227         82.883430       2951.417531
 ion    8
       3384.789577        -46.598223        -35.181011
         37.126351       3278.476146        -33.984333
        -42.223227         82.883430       2951.417531
 ion    9
        680.894666        -18.500604         65.468713
         -9.705945        763.502680         86.916275
         71.714481         24.289535        230.699785
 ion   10
        680.894666        -18.500604         65.468713
         -9.705945        763.502680         86.916275
         71.714481         24.289535        230.699785
 ion   11
        680.894666         18.500604         65.468713
          9.705945        763.502680        -86.916275
         71.714481        -24.289535        230.699785
 ion   12
        680.894666         18.500604         65.468713
          9.705945        763.502680        -86.916275
         71.714481        -24.289535        230.699785
 ion   13
        531.089093        223.215738       -105.662694
        194.602032        445.248014        145.397851
        -90.160208        141.365411        733.664149
 ion   14
        531.089093        223.215738       -105.662694
        194.602032        445.248014        145.397851
        -90.160208        141.365411        733.664149
 ion   15
        531.089093       -223.215738       -105.662694
       -194.602032        445.248014       -145.397851
        -90.160208       -141.365411        733.664149
 ion   16
        531.089093       -223.215738       -105.662694
       -194.602032        445.248014       -145.397851
        -90.160208       -141.365411        733.664149
 ion   17
         61.671637        -37.825372          1.580017
        -26.321075        122.140765        -12.719368
         -7.691098        -12.039120        181.357800
 ion   18
         61.671637        -37.825372          1.580017
        -26.321075        122.140765        -12.719368
         -7.691098        -12.039120        181.357800
 ion   19
         61.671637         37.825372          1.580017
         26.321075        122.140765         12.719368
         -7.691098         12.039120        181.357800
 ion   20
         61.671637         37.825372          1.580017
         26.321075        122.140765         12.719368
         -7.691098         12.039120        181.357800
 ion   21
        128.246300         35.617663        -18.034478
         40.271375         99.073928         28.932879
        -38.789561         57.140952        258.451297
 ion   22
        128.246300         35.617663        -18.034478
         40.271375         99.073928         28.932879
        -38.789561         57.140952        258.451297
 ion   23
        128.246300        -35.617663        -18.034478
        -40.271375         99.073928        -28.932879
        -38.789561        -57.140952        258.451297
 ion   24
        128.246300        -35.617663        -18.034478
        -40.271375         99.073928        -28.932879
        -38.789561        -57.140952        258.451297
 -------------------------------------------------------------


 -------------------------------------------------------------
  G=0 CONTRIBUTION TO CHEMICAL SHIFT (field along BDIR) 
 -------------------------------------------------------------
   BDIR                X                 Y                 Z
 -------------------------------------------------------------
     1         -3.132551          0.000000         -0.031739
     2          0.000000         -3.063413          0.000000
     3         -0.029784          0.000000         -3.488264
 -------------------------------------------------------------

  Approximate magnetic susceptibility, pGv (10^-6 cm^3/mole) 
     1        -72.689455          0.000000         -0.736492
     2          0.000000        -71.085146          0.000000
     3         -0.691134          0.000000        -80.943628
 -------------------------------------------------------------


 --------------------------------------------------------------------------
  Core NMR properties        

  typ  El   Core shift (ppm)
 ----------------------------
    1  Na    -377.2811014
    2  Nb   -3786.6089620
    3  O     -271.0766935
    4  F     -306.4193758
 ----------------------------

  Core contribution to magnetic susceptibility:    -14.96  10^-6 cm^3/mole
 --------------------------------------------------------------------------


 ---------------------------------------------------------------------------------
  CSA tensor (J. Mason, Solid State Nucl. Magn. Reson. 2, 285 (1993))             
 ---------------------------------------------------------------------------------
             EXCLUDING G=0 CONTRIBUTION             INCLUDING G=0 CONTRIBUTION    
         -----------------------------------   -----------------------------------
  ATOM    ISO_SHIFT        SPAN        SKEW     ISO_SHIFT        SPAN        SKEW 
 ---------------------------------------------------------------------------------
  (absolute, valence only)                                                                  
     1    -186.2471     18.6004      0.7223     -189.4751     18.5607      0.7269
     2    -186.2471     18.6004      0.7223     -189.4751     18.5607      0.7269
     3    -186.2471     18.6004      0.7223     -189.4751     18.5607      0.7269
     4    -186.2471     18.6004      0.7223     -189.4751     18.5607      0.7269
     5    3204.8944    442.3897      0.5077     3201.6663    442.7487      0.5084
     6    3204.8944    442.3897      0.5077     3201.6663    442.7487      0.5084
     7    3204.8944    442.3897      0.5077     3201.6663    442.7487      0.5084
     8    3204.8944    442.3897      0.5077     3201.6663    442.7487      0.5084
     9     558.3657    555.3064      0.7149      555.1376    555.7065      0.7148
    10     558.3657    555.3064      0.7149      555.1376    555.7065      0.7148
    11     558.3657    555.3064      0.7149      555.1376    555.7065      0.7148
    12     558.3657    555.3064      0.7149      555.1376    555.7065      0.7148
    13     570.0004    576.7736      0.6729      566.7723    576.4829      0.6739
    14     570.0004    576.7736      0.6729      566.7723    576.4829      0.6739
    15     570.0004    576.7736      0.6729      566.7723    576.4829      0.6739
    16     570.0004    576.7736      0.6729      566.7723    576.4829      0.6739
    17     121.7234    136.5637      0.2663      118.4953    136.2190      0.2700
    18     121.7234    136.5637      0.2663      118.4953    136.2190      0.2700
    19     121.7234    136.5637      0.2663      118.4953    136.2190      0.2700
    20     121.7234    136.5637      0.2663      118.4953    136.2190      0.2700
    21     161.9238    212.1942     -0.1077      158.6958    211.8589     -0.1062
    22     161.9238    212.1942     -0.1077      158.6958    211.8589     -0.1062
    23     161.9238    212.1942     -0.1077      158.6958    211.8589     -0.1062
    24     161.9238    212.1942     -0.1077      158.6958    211.8589     -0.1062
 ---------------------------------------------------------------------------------
  (absolute, valence and core)                                                                  
     1    -563.5282     18.6004      0.7223     -567.4011     18.5607      0.7269
     2    -563.5282     18.6004      0.7223     -567.4011     18.5607      0.7269
     3    -563.5282     18.6004      0.7223     -567.4011     18.5607      0.7269
     4    -563.5282     18.6004      0.7223     -567.4011     18.5607      0.7269
     5    -581.7145    442.3897      0.5077     -585.5875    442.7487      0.5084
     6    -581.7145    442.3897      0.5077     -585.5875    442.7487      0.5084
     7    -581.7145    442.3897      0.5077     -585.5875    442.7487      0.5084
     8    -581.7145    442.3897      0.5077     -585.5875    442.7487      0.5084
     9     287.2890    555.3064      0.7149      283.4161    555.7065      0.7148
    10     287.2890    555.3064      0.7149      283.4161    555.7065      0.7148
    11     287.2890    555.3064      0.7149      283.4161    555.7065      0.7148
    12     287.2890    555.3064      0.7149      283.4161    555.7065      0.7148
    13     298.9237    576.7736      0.6729      295.0508    576.4829      0.6739
    14     298.9237    576.7736      0.6729      295.0508    576.4829      0.6739
    15     298.9237    576.7736      0.6729      295.0508    576.4829      0.6739
    16     298.9237    576.7736      0.6729      295.0508    576.4829      0.6739
    17    -184.6960    136.5637      0.2663     -188.5689    136.2190      0.2700
    18    -184.6960    136.5637      0.2663     -188.5689    136.2190      0.2700
    19    -184.6960    136.5637      0.2663     -188.5689    136.2190      0.2700
    20    -184.6960    136.5637      0.2663     -188.5689    136.2190      0.2700
    21    -144.4955    212.1942     -0.1077     -148.3685    211.8589     -0.1062
    22    -144.4955    212.1942     -0.1077     -148.3685    211.8589     -0.1062
    23    -144.4955    212.1942     -0.1077     -148.3685    211.8589     -0.1062
    24    -144.4955    212.1942     -0.1077     -148.3685    211.8589     -0.1062
 ---------------------------------------------------------------------------------
  IF SPAN.EQ.0, THEN SKEW IS ILL-DEFINED                                          
 ---------------------------------------------------------------------------------


 writing wavefunctions
     LOOP+:  cpu time41466.8358: real time41470.3944
    4ORBIT:  cpu time    0.0000: real time    0.0000

 total amount of memory used by VASP MPI-rank0   544498. kBytes
=======================================================================

   base      :      30000. kBytes
   nonlr-proj:       9954. kBytes
   fftplans  :      20492. kBytes
   grid      :      46129. kBytes
   one-center:       1843. kBytes
   wavefun   :     436080. kBytes

  
  
 General timing and accounting informations for this job:
 ========================================================
  
                  Total CPU time used (sec):    41478.773
                            User time (sec):    41444.691
                          System time (sec):       34.081
                         Elapsed time (sec):    41482.526
  
                   Maximum memory used (kb):     2319936.
                   Average memory used (kb):          N/A
  
                          Minor page faults:       194440
                          Major page faults:            2
                 Voluntary context switches:         1537
