unknown system                          
           1
     8.002600    0.000000    0.000000
     0.000000    5.407180    0.000000
    -1.574218    0.000000    7.460002
   Na   Nb   O    F 
     4     4     8     8
Direct configuration=     1
   0.36660001  0.77999997  0.11560000
   0.63339996  0.22000003  0.88440001
   0.63339996  0.27999997  0.38440001
   0.36660001  0.72000003  0.61559999
   0.15493999  0.26440000  0.31799999
   0.84505999  0.73560000  0.68200004
   0.84505999  0.76440000  0.18200001
   0.15493999  0.23560000  0.81799996
   0.18250001  0.15620001  0.07090000
   0.81749999  0.84380001  0.92909998
   0.81749999  0.65619999  0.42910001
   0.18250001  0.34380001  0.57090002
   0.04250000  0.54390001  0.21170001
   0.95749998  0.45609999  0.78829998
   0.95749998  0.04390001  0.28829998
   0.04250000  0.95609999  0.71170002
   0.37689999  0.44400001  0.31369999
   0.62310004  0.55599999  0.68630004
   0.62310004  0.94400001  0.18630001
   0.37689999  0.05599999  0.81369996
   0.31040001  0.97659999  0.37830001
   0.68959999  0.02340001  0.62169999
   0.68959999  0.47659999  0.12169999
   0.31040001  0.52340001  0.87830001
