  24  24   0   0
  0.1345672E+02  0.8099730E-09  0.5439130E-09  0.7498150E-09  0.5000000E-15
   1.0000000000000000E-004
  CAR 
 NbOF2.5(OH)0.5_W1_VASP_PBE_DFT-D3_APO   
     15.33808409    -70.31444562  301      1.38385946      1.00000000
    -70.314  0.0000E+00  0.0000E+00
    -70.029  0.0000E+00  0.0000E+00
    -69.743  0.0000E+00  0.0000E+00
    -69.458  0.0000E+00  0.0000E+00
    -69.172  0.0000E+00  0.0000E+00
    -68.887  0.0000E+00  0.0000E+00
    -68.601  0.0000E+00  0.0000E+00
    -68.316  0.0000E+00  0.0000E+00
    -68.030  0.0000E+00  0.0000E+00
    -67.745  0.0000E+00  0.0000E+00
    -67.459  0.0000E+00  0.0000E+00
    -67.174  0.0000E+00  0.0000E+00
    -66.888  0.4762E-12  0.1360E-12
    -66.603  0.1342E-03  0.3831E-04
    -66.317  0.2581E-01  0.7408E-02
    -66.032  0.2073E-02  0.8000E-02
    -65.746  0.5820E-09  0.8000E-02
    -65.461  0.0000E+00  0.8000E-02
    -65.175  0.0000E+00  0.8000E-02
    -64.890  0.0000E+00  0.8000E-02
    -64.604  0.0000E+00  0.8000E-02
    -64.319  0.0000E+00  0.8000E-02
    -64.033  0.0000E+00  0.8000E-02
    -63.748  0.0000E+00  0.8000E-02
    -63.462  0.0000E+00  0.8000E-02
    -63.177  0.0000E+00  0.8000E-02
    -62.891  0.0000E+00  0.8000E-02
    -62.606  0.0000E+00  0.8000E-02
    -62.320  0.0000E+00  0.8000E-02
    -62.035  0.0000E+00  0.8000E-02
    -61.749  0.0000E+00  0.8000E-02
    -61.464  0.0000E+00  0.8000E-02
    -61.178  0.0000E+00  0.8000E-02
    -60.893  0.0000E+00  0.8000E-02
    -60.607  0.0000E+00  0.8000E-02
    -60.322  0.0000E+00  0.8000E-02
    -60.036  0.0000E+00  0.8000E-02
    -59.751  0.0000E+00  0.8000E-02
    -59.465  0.0000E+00  0.8000E-02
    -59.180  0.0000E+00  0.8000E-02
    -58.894  0.0000E+00  0.8000E-02
    -58.609  0.0000E+00  0.8000E-02
    -58.323  0.0000E+00  0.8000E-02
    -58.038  0.0000E+00  0.8000E-02
    -57.752  0.0000E+00  0.8000E-02
    -57.467  0.0000E+00  0.8000E-02
    -57.181  0.0000E+00  0.8000E-02
    -56.896  0.0000E+00  0.8000E-02
    -56.610  0.0000E+00  0.8000E-02
    -56.325  0.0000E+00  0.8000E-02
    -56.039  0.0000E+00  0.8000E-02
    -55.754  0.0000E+00  0.8000E-02
    -55.468  0.0000E+00  0.8000E-02
    -55.182  0.0000E+00  0.8000E-02
    -54.897  0.0000E+00  0.8000E-02
    -54.611  0.0000E+00  0.8000E-02
    -54.326  0.0000E+00  0.8000E-02
    -54.040  0.0000E+00  0.8000E-02
    -53.755  0.0000E+00  0.8000E-02
    -53.469  0.0000E+00  0.8000E-02
    -53.184  0.0000E+00  0.8000E-02
    -52.898  0.0000E+00  0.8000E-02
    -52.613  0.0000E+00  0.8000E-02
    -52.327  0.0000E+00  0.8000E-02
    -52.042  0.0000E+00  0.8000E-02
    -51.756  0.0000E+00  0.8000E-02
    -51.471  0.0000E+00  0.8000E-02
    -51.185  0.0000E+00  0.8000E-02
    -50.900  0.0000E+00  0.8000E-02
    -50.614  0.0000E+00  0.8000E-02
    -50.329  0.0000E+00  0.8000E-02
    -50.043  0.0000E+00  0.8000E-02
    -49.758  0.0000E+00  0.8000E-02
    -49.472  0.0000E+00  0.8000E-02
    -49.187  0.0000E+00  0.8000E-02
    -48.901  0.0000E+00  0.8000E-02
    -48.616  0.0000E+00  0.8000E-02
    -48.330  0.0000E+00  0.8000E-02
    -48.045  0.4579E-09  0.8000E-02
    -47.759  0.1913E-02  0.8546E-02
    -47.474  0.2596E-01  0.1596E-01
    -47.188  0.1514E-03  0.1600E-01
    -46.903  0.6308E-12  0.1600E-01
    -46.617  0.0000E+00  0.1600E-01
    -46.332  0.0000E+00  0.1600E-01
    -46.046  0.0000E+00  0.1600E-01
    -45.761  0.0000E+00  0.1600E-01
    -45.475  0.0000E+00  0.1600E-01
    -45.190  0.0000E+00  0.1600E-01
    -44.904  0.0000E+00  0.1600E-01
    -44.619  0.0000E+00  0.1600E-01
    -44.333  0.0000E+00  0.1600E-01
    -44.048  0.0000E+00  0.1600E-01
    -43.762  0.0000E+00  0.1600E-01
    -43.477  0.0000E+00  0.1600E-01
    -43.191  0.0000E+00  0.1600E-01
    -42.906  0.0000E+00  0.1600E-01
    -42.620  0.0000E+00  0.1600E-01
    -42.335  0.0000E+00  0.1600E-01
    -42.049  0.0000E+00  0.1600E-01
    -41.764  0.0000E+00  0.1600E-01
    -41.478  0.0000E+00  0.1600E-01
    -41.193  0.0000E+00  0.1600E-01
    -40.907  0.0000E+00  0.1600E-01
    -40.622  0.0000E+00  0.1600E-01
    -40.336  0.0000E+00  0.1600E-01
    -40.051  0.0000E+00  0.1600E-01
    -39.765  0.0000E+00  0.1600E-01
    -39.480  0.0000E+00  0.1600E-01
    -39.194  0.0000E+00  0.1600E-01
    -38.909  0.0000E+00  0.1600E-01
    -38.623  0.0000E+00  0.1600E-01
    -38.338  0.0000E+00  0.1600E-01
    -38.052  0.0000E+00  0.1600E-01
    -37.766  0.0000E+00  0.1600E-01
    -37.481  0.0000E+00  0.1600E-01
    -37.195  0.0000E+00  0.1600E-01
    -36.910  0.0000E+00  0.1600E-01
    -36.624  0.0000E+00  0.1600E-01
    -36.339  0.0000E+00  0.1600E-01
    -36.053  0.0000E+00  0.1600E-01
    -35.768  0.0000E+00  0.1600E-01
    -35.482  0.0000E+00  0.1600E-01
    -35.197  0.0000E+00  0.1600E-01
    -34.911  0.0000E+00  0.1600E-01
    -34.626  0.0000E+00  0.1600E-01
    -34.340  0.0000E+00  0.1600E-01
    -34.055  0.0000E+00  0.1600E-01
    -33.769  0.0000E+00  0.1600E-01
    -33.484  0.2946E-12  0.1600E-01
    -33.198  0.1057E-03  0.1603E-01
    -32.913  0.4850E-01  0.2988E-01
    -32.627  0.3538E-01  0.3998E-01
    -32.342  0.8191E-04  0.4000E-01
    -32.056  0.6231E-12  0.4000E-01
    -31.771  0.0000E+00  0.4000E-01
    -31.485  0.0000E+00  0.4000E-01
    -31.200  0.0000E+00  0.4000E-01
    -30.914  0.0000E+00  0.4000E-01
    -30.629  0.0000E+00  0.4000E-01
    -30.343  0.0000E+00  0.4000E-01
    -30.058  0.0000E+00  0.4000E-01
    -29.772  0.0000E+00  0.4000E-01
    -29.487  0.0000E+00  0.4000E-01
    -29.201  0.0000E+00  0.4000E-01
    -28.916  0.0000E+00  0.4000E-01
    -28.630  0.0000E+00  0.4000E-01
    -28.345  0.0000E+00  0.4000E-01
    -28.059  0.0000E+00  0.4000E-01
    -27.774  0.0000E+00  0.4000E-01
    -27.488  0.0000E+00  0.4000E-01
    -27.203  0.0000E+00  0.4000E-01
    -26.917  0.0000E+00  0.4000E-01
    -26.632  0.0000E+00  0.4000E-01
    -26.346  0.0000E+00  0.4000E-01
    -26.061  0.0000E+00  0.4000E-01
    -25.775  0.0000E+00  0.4000E-01
    -25.490  0.0000E+00  0.4000E-01
    -25.204  0.0000E+00  0.4000E-01
    -24.919  0.0000E+00  0.4000E-01
    -24.633  0.0000E+00  0.4000E-01
    -24.348  0.0000E+00  0.4000E-01
    -24.062  0.0000E+00  0.4000E-01
    -23.777  0.0000E+00  0.4000E-01
    -23.491  0.0000E+00  0.4000E-01
    -23.206  0.0000E+00  0.4000E-01
    -22.920  0.0000E+00  0.4000E-01
    -22.635  0.0000E+00  0.4000E-01
    -22.349  0.0000E+00  0.4000E-01
    -22.064  0.0000E+00  0.4000E-01
    -21.778  0.0000E+00  0.4000E-01
    -21.493  0.0000E+00  0.4000E-01
    -21.207  0.0000E+00  0.4000E-01
    -20.921  0.7443E-08  0.4000E-01
    -20.636  0.3055E-02  0.4087E-01
    -20.350  0.4100E-01  0.5258E-01
    -20.065  0.1198E-01  0.5600E-01
    -19.779  0.1987E-03  0.5605E-01
    -19.494  0.5091E-01  0.7059E-01
    -19.208  0.3289E-01  0.7998E-01
    -18.923  0.6621E-04  0.8000E-01
    -18.637  0.3012E-12  0.8000E-01
    -18.352  0.0000E+00  0.8000E-01
    -18.066  0.0000E+00  0.8000E-01
    -17.781  0.0000E+00  0.8000E-01
    -17.495  0.0000E+00  0.8000E-01
    -17.210  0.0000E+00  0.8000E-01
    -16.924  0.0000E+00  0.8000E-01
    -16.639  0.0000E+00  0.8000E-01
    -16.353  0.6594E-17  0.8000E-01
    -16.068  0.1593E-06  0.8000E-01
    -15.782  0.1771E-02  0.8051E-01
    -15.497  0.1106E-01  0.8366E-01
    -15.211  0.2582E-01  0.9103E-01
    -14.926  0.3658E-02  0.9208E-01
    -14.640  0.6657E-02  0.9398E-01
    -14.355  0.5721E-02  0.9561E-01
    -14.069  0.1359E-02  0.9600E-01
    -13.784  0.4141E-08  0.9600E-01
    -13.498  0.0000E+00  0.9600E-01
    -13.213  0.0000E+00  0.9600E-01
    -12.927  0.0000E+00  0.9600E-01
    -12.642  0.0000E+00  0.9600E-01
    -12.356  0.0000E+00  0.9600E-01
    -12.071  0.0000E+00  0.9600E-01
    -11.785  0.0000E+00  0.9600E-01
    -11.500  0.0000E+00  0.9600E-01
    -11.214  0.0000E+00  0.9600E-01
    -10.929  0.0000E+00  0.9600E-01
    -10.643  0.0000E+00  0.9600E-01
    -10.358  0.0000E+00  0.9600E-01
    -10.072  0.0000E+00  0.9600E-01
     -9.787  0.0000E+00  0.9600E-01
     -9.501  0.0000E+00  0.9600E-01
     -9.216  0.0000E+00  0.9600E-01
     -8.930  0.0000E+00  0.9600E-01
     -8.645  0.0000E+00  0.9600E-01
     -8.359  0.0000E+00  0.9600E-01
     -8.074  0.0000E+00  0.9600E-01
     -7.788  0.0000E+00  0.9600E-01
     -7.503  0.0000E+00  0.9600E-01
     -7.217  0.0000E+00  0.9600E-01
     -6.932  0.0000E+00  0.9600E-01
     -6.646  0.0000E+00  0.9600E-01
     -6.361  0.0000E+00  0.9600E-01
     -6.075  0.0000E+00  0.9600E-01
     -5.790  0.0000E+00  0.9600E-01
     -5.504  0.0000E+00  0.9600E-01
     -5.219  0.0000E+00  0.9600E-01
     -4.933  0.0000E+00  0.9600E-01
     -4.648  0.0000E+00  0.9600E-01
     -4.362  0.1764E-09  0.9600E-01
     -4.076  0.5563E-03  0.9616E-01
     -3.791  0.2827E-01  0.1042E+00
     -3.505  0.6267E-02  0.1060E+00
     -3.220  0.1139E-01  0.1093E+00
     -2.934  0.1944E-01  0.1148E+00
     -2.649  0.2691E-01  0.1225E+00
     -2.363  0.2372E-01  0.1293E+00
     -2.078  0.2239E-01  0.1357E+00
     -1.792  0.1148E-01  0.1389E+00
     -1.507  0.2831E-01  0.1470E+00
     -1.221  0.2977E-01  0.1555E+00
     -0.936  0.3038E-01  0.1642E+00
     -0.650  0.1876E-01  0.1696E+00
     -0.365  0.8965E-02  0.1721E+00
     -0.079  0.1734E-01  0.1771E+00
      0.206  0.2065E-01  0.1830E+00
      0.492  0.1325E-01  0.1867E+00
      0.777  0.1473E-01  0.1910E+00
      1.063  0.3669E-02  0.1920E+00
      1.348  0.3631E-07  0.1920E+00
      1.634  0.0000E+00  0.1920E+00
      1.919  0.0000E+00  0.1920E+00
      2.205  0.0000E+00  0.1920E+00
      2.490  0.0000E+00  0.1920E+00
      2.776  0.0000E+00  0.1920E+00
      3.061  0.0000E+00  0.1920E+00
      3.347  0.0000E+00  0.1920E+00
      3.632  0.0000E+00  0.1920E+00
      3.918  0.0000E+00  0.1920E+00
      4.203  0.1711E-10  0.1920E+00
      4.489  0.1008E-03  0.1920E+00
      4.774  0.6847E-02  0.1940E+00
      5.060  0.7105E-02  0.1960E+00
      5.345  0.9112E-02  0.1986E+00
      5.631  0.3022E-02  0.1995E+00
      5.916  0.7648E-02  0.2017E+00
      6.202  0.1382E-01  0.2056E+00
      6.487  0.7922E-02  0.2079E+00
      6.773  0.9083E-02  0.2105E+00
      7.058  0.9985E-02  0.2133E+00
      7.344  0.8425E-02  0.2157E+00
      7.629  0.3280E-02  0.2167E+00
      7.915  0.1423E-02  0.2171E+00
      8.200  0.1908E-02  0.2176E+00
      8.486  0.3058E-02  0.2185E+00
      8.771  0.2545E-02  0.2192E+00
      9.057  0.6426E-02  0.2210E+00
      9.342  0.8049E-02  0.2233E+00
      9.628  0.6601E-02  0.2252E+00
      9.913  0.9167E-02  0.2278E+00
     10.199  0.8673E-02  0.2303E+00
     10.484  0.8355E-02  0.2327E+00
     10.770  0.9044E-02  0.2353E+00
     11.055  0.9559E-02  0.2380E+00
     11.341  0.6159E-02  0.2398E+00
     11.626  0.7999E-03  0.2400E+00
     11.912  0.1645E-05  0.2400E+00
     12.197  0.5718E-14  0.2400E+00
     12.483  0.0000E+00  0.2400E+00
     12.769  0.0000E+00  0.2400E+00
     13.054  0.0000E+00  0.2400E+00
     13.340  0.0000E+00  0.2400E+00
     13.625  0.0000E+00  0.2400E+00
     13.911  0.0000E+00  0.2400E+00
     14.196  0.0000E+00  0.2400E+00
     14.482  0.0000E+00  0.2400E+00
     14.767  0.0000E+00  0.2400E+00
     15.053  0.0000E+00  0.2400E+00
     15.338  0.0000E+00  0.2400E+00
