NbOF2.5(OH)0.5_W1_VASP_PBE_DFT-D3_APO   
           1
     8.099730    0.000000    0.000000
     0.000000    5.439130    0.000000
    -1.575373    0.000000    7.330788
   Na   Ta   O    F 
     4     4     8     8
Direct configuration=     1
   0.37670001  0.79320002  0.10920000
   0.62329996  0.20679998  0.89080000
   0.62329996  0.29320002  0.39080000
   0.37670001  0.70679998  0.60920000
   0.15807000  0.25979999  0.29815999
   0.84193003  0.74020004  0.70184004
   0.84193003  0.75979996  0.20184001
   0.15807000  0.24020001  0.79815996
   0.19850001  0.15430000  0.05330000
   0.80149996  0.84570003  0.94669998
   0.80149996  0.65429997  0.44670001
   0.19850001  0.34570000  0.55330002
   0.03670000  0.55919999  0.21630000
   0.96329999  0.44080001  0.78369999
   0.96329999  0.05919999  0.28369999
   0.03670000  0.94080001  0.71630001
   0.37639999  0.47189999  0.30370000
   0.62360001  0.52810001  0.69630003
   0.62360001  0.97189999  0.19630000
   0.37639999  0.02810001  0.80369997
   0.33039999  0.98229998  0.37670001
   0.66960001  0.01770002  0.62329996
   0.66960001  0.48229998  0.12329999
   0.33039999  0.51770002  0.87670004
NbOF2.5(OH)0.5_W1_VASP_PBE_DFT-D3_APO   
           1
     8.057052    0.000000    0.016784
     0.000000    5.421009    0.000000
    -1.551882    0.000000    7.296753
   Na   Ta   O    F 
     4     4     8     8
Direct configuration=     2
   0.37644408  0.79222784  0.10870512
   0.62355589  0.20777216  0.89129488
   0.62355589  0.29222784  0.39129488
   0.37644408  0.70777216  0.60870512
   0.16743117  0.26001365  0.29975679
   0.83256886  0.73998638  0.70024324
   0.83256886  0.76001362  0.20024321
   0.16743117  0.23998635  0.79975676
   0.19470723  0.15851269  0.05315617
   0.80529274  0.84148734  0.94684381
   0.80529274  0.65851266  0.44684384
   0.19470723  0.34148731  0.55315619
   0.03556024  0.55830579  0.21488683
   0.96443975  0.44169421  0.78511316
   0.96443975  0.05830579  0.28511316
   0.03556024  0.94169421  0.71488684
   0.37257052  0.46959528  0.30401629
   0.62742948  0.53040472  0.69598374
   0.62742948  0.96959528  0.19598371
   0.37257052  0.03040472  0.80401626
   0.32671927  0.98627029  0.37605073
   0.67328073  0.01372971  0.62394924
   0.67328073  0.48627029  0.12394927
   0.32671927  0.51372971  0.87605076
NbOF2.5(OH)0.5_W1_VASP_PBE_DFT-D3_APO   
           1
     8.081150    0.000000    0.007307
     0.000000    5.431241    0.000000
    -1.565146    0.000000    7.315971
   Na   Ta   O    F 
     4     4     8     8
Direct configuration=     3
   0.37658873  0.79277862  0.10898553
   0.62341124  0.20722138  0.89101447
   0.62341124  0.29277862  0.39101447
   0.37658873  0.70722138  0.60898553
   0.16212148  0.25989260  0.29886315
   0.83787855  0.74010743  0.70113688
   0.83787855  0.75989257  0.20113685
   0.16212148  0.24010740  0.79886312
   0.19685908  0.15612601  0.05323281
   0.80314089  0.84387402  0.94676716
   0.80314089  0.65612598  0.44676719
   0.19685908  0.34387399  0.55323284
   0.03620533  0.55881239  0.21568702
   0.96379466  0.44118761  0.78431296
   0.96379466  0.05881239  0.28431296
   0.03620533  0.94118761  0.71568704
   0.37474371  0.47090100  0.30383186
   0.62525629  0.52909900  0.69616817
   0.62525629  0.97090100  0.19616814
   0.37474371  0.02909900  0.80383183
   0.32880696  0.98402093  0.37641426
   0.67119304  0.01597907  0.62358571
   0.67119304  0.48402093  0.12358574
   0.32880696  0.51597907  0.87641429
NbOF2.5(OH)0.5_W1_VASP_PBE_DFT-D3_APO   
           1
     8.076937    0.000000    0.013776
     0.000000    5.427642    0.000000
    -1.558506    0.000000    7.351791
   Na   Ta   O    F 
     4     4     8     8
Direct configuration=     4
   0.37573138  0.79192114  0.10836247
   0.62426859  0.20807886  0.89163753
   0.62426859  0.29192114  0.39163753
   0.37573138  0.70807886  0.60836247
   0.16145395  0.26137971  0.29770605
   0.83854608  0.73862032  0.70229398
   0.83854608  0.76137968  0.20229395
   0.16145395  0.23862029  0.79770602
   0.19503610  0.15853561  0.05386401
   0.80496387  0.84146442  0.94613597
   0.80496387  0.65853558  0.44613600
   0.19503610  0.34146439  0.55386403
   0.03440511  0.55779785  0.21483460
   0.96559488  0.44220215  0.78516539
   0.96559488  0.05779785  0.28516539
   0.03440511  0.94220215  0.71483461
   0.37357825  0.47042871  0.30437338
   0.62642175  0.52957129  0.69562665
   0.62642175  0.97042871  0.19562662
   0.37357825  0.02957129  0.80437335
   0.32773837  0.98489444  0.37674266
   0.67226163  0.01510556  0.62325731
   0.67226163  0.48489444  0.12325734
   0.32773837  0.51510556  0.87674269
NbOF2.5(OH)0.5_W1_VASP_PBE_DFT-D3_APO   
           1
     8.072804    0.000000    0.020122
     0.000000    5.424111    0.000000
    -1.551993    0.000000    7.386926
   Na   Ta   O    F 
     4     4     8     8
Direct configuration=     5
   0.37489121  0.79107950  0.10775505
   0.62510876  0.20892050  0.89224495
   0.62510876  0.29107950  0.39224495
   0.37489121  0.70892050  0.60775505
   0.16080097  0.26283934  0.29657718
   0.83919906  0.73716069  0.70342285
   0.83919906  0.76283931  0.20342282
   0.16080097  0.23716066  0.79657715
   0.19324627  0.16090068  0.05448169
   0.80675370  0.83909935  0.94551829
   0.80675370  0.66090065  0.44551832
   0.19324627  0.33909932  0.55448171
   0.03264018  0.55680206  0.21400411
   0.96735981  0.44319794  0.78599588
   0.96735981  0.05680206  0.28599588
   0.03264018  0.94319794  0.71400412
   0.37243375  0.46996514  0.30490295
   0.62756625  0.53003486  0.69509708
   0.62756625  0.96996514  0.19509705
   0.37243375  0.03003486  0.80490292
   0.32668928  0.98575181  0.37706413
   0.67331072  0.01424819  0.62293584
   0.67331072  0.48575181  0.12293587
   0.32668928  0.51424819  0.87706416
NbOF2.5(OH)0.5_W1_VASP_PBE_DFT-D3_APO   
           1
     8.123936    0.000000    0.034559
     0.000000    5.447923    0.000000
    -1.548618    0.000000    7.389322
   Na   Ta   O    F 
     4     4     8     8
Direct configuration=     6
   0.37372165  0.79015445  0.10706294
   0.62627832  0.20984555  0.89293706
   0.62627832  0.29015445  0.39293706
   0.37372165  0.70984555  0.60706294
   0.16013831  0.26381578  0.29605464
   0.83986172  0.73618425  0.70394539
   0.83986172  0.76381575  0.20394536
   0.16013831  0.23618422  0.79605461
   0.19095639  0.16329662  0.05405489
   0.80904358  0.83670341  0.94594508
   0.80904358  0.66329659  0.44594511
   0.19095639  0.33670338  0.55405492
   0.03166005  0.55516021  0.21320534
   0.96833994  0.44483979  0.78679464
   0.96833994  0.05516021  0.28679464
   0.03166005  0.94483979  0.71320536
   0.37233167  0.47069913  0.30603188
   0.62766833  0.52930087  0.69396815
   0.62766833  0.97069913  0.19396812
   0.37233167  0.02930087  0.80603185
   0.32587420  0.98618965  0.37727530
   0.67412580  0.01381035  0.62272467
   0.67412580  0.48618965  0.12272470
   0.32587420  0.51381035  0.87727533
NbOF2.5(OH)0.5_W1_VASP_PBE_DFT-D3_APO   
           1
     8.142831    0.000000    0.039894
     0.000000    5.456722    0.000000
    -1.547371    0.000000    7.390207
   Na   Ta   O    F 
     4     4     8     8
Direct configuration=     7
   0.37329245  0.78981411  0.10680809
   0.62670752  0.21018589  0.89319191
   0.62670752  0.28981411  0.39319191
   0.37329245  0.71018589  0.60680809
   0.15989516  0.26417504  0.29586208
   0.84010487  0.73582499  0.70413795
   0.84010487  0.76417501  0.20413792
   0.15989516  0.23582496  0.79586205
   0.19011591  0.16417813  0.05389886
   0.80988406  0.83582190  0.94610112
   0.80988406  0.66417810  0.44610115
   0.19011591  0.33582187  0.55389888
   0.03130041  0.55455614  0.21291097
   0.96869958  0.44544386  0.78708902
   0.96869958  0.05455614  0.28708902
   0.03130041  0.94544386  0.71291098
   0.37229400  0.47096918  0.30644899
   0.62770600  0.52903082  0.69355104
   0.62770600  0.97096918  0.19355101
   0.37229400  0.02903082  0.80644896
   0.32557497  0.98635074  0.37735389
   0.67442503  0.01364926  0.62264608
   0.67442503  0.48635074  0.12264611
   0.32557497  0.51364926  0.87735392
NbOF2.5(OH)0.5_W1_VASP_PBE_DFT-D3_APO   
           1
     8.151142    0.000000    0.038535
     0.000000    5.456570    0.000000
    -1.550032    0.000000    7.359390
   Na   Ta   O    F 
     4     4     8     8
Direct configuration=     8
   0.37256038  0.78943506  0.10645689
   0.62743959  0.21056494  0.89354311
   0.62743959  0.28943506  0.39354311
   0.37256038  0.71056494  0.60645689
   0.15949300  0.26386004  0.29594974
   0.84050703  0.73613999  0.70405029
   0.84050703  0.76386001  0.20405026
   0.15949300  0.23613996  0.79594971
   0.18860941  0.16516701  0.05298899
   0.81139056  0.83483302  0.94701099
   0.81139056  0.66516698  0.44701102
   0.18860941  0.33483299  0.55298901
   0.03077714  0.55322249  0.21290743
   0.96922285  0.44677751  0.78709256
   0.96922285  0.05322249  0.28709256
   0.03077714  0.94677751  0.71290744
   0.37199148  0.47115962  0.30763848
   0.62800852  0.52884038  0.69236155
   0.62800852  0.97115962  0.19236152
   0.37199148  0.02884038  0.80763845
   0.32450799  0.98749124  0.37673079
   0.67549201  0.01250876  0.62326918
   0.67549201  0.48749124  0.12326921
   0.32450799  0.51250876  0.87673082
NbOF2.5(OH)0.5_W1_VASP_PBE_DFT-D3_APO   
           1
     8.151478    0.000000    0.038480
     0.000000    5.456564    0.000000
    -1.550140    0.000000    7.358142
   Na   Ta   O    F 
     4     4     8     8
Direct configuration=     9
   0.37253074  0.78941970  0.10644260
   0.62746923  0.21058030  0.89355740
   0.62746923  0.28941970  0.39355740
   0.37253074  0.71058030  0.60644260
   0.15947673  0.26384729  0.29595331
   0.84052330  0.73615274  0.70404672
   0.84052330  0.76384726  0.20404669
   0.15947673  0.23615271  0.79595328
   0.18854842  0.16520706  0.05295197
   0.81145155  0.83479297  0.94704801
   0.81145155  0.66520703  0.44704804
   0.18854842  0.33479294  0.55295199
   0.03075597  0.55316848  0.21290728
   0.96924402  0.44683152  0.78709271
   0.96924402  0.05316848  0.28709271
   0.03075597  0.94683152  0.71290729
   0.37197930  0.47116733  0.30768685
   0.62802070  0.52883267  0.69231318
   0.62802070  0.97116733  0.19231315
   0.37197930  0.02883267  0.80768682
   0.32446480  0.98753743  0.37670544
   0.67553520  0.01246257  0.62329453
   0.67553520  0.48753743  0.12329456
   0.32446480  0.51246257  0.87670547
NbOF2.5(OH)0.5_W1_VASP_PBE_DFT-D3_APO   
           1
     8.159469    0.000000    0.025443
     0.000000    5.463579    0.000000
    -1.563466    0.000000    7.366148
   Na   Ta   O    F 
     4     4     8     8
Direct configuration=    10
   0.37204367  0.78937312  0.10624089
   0.62795630  0.21062688  0.89375911
   0.62795630  0.28937312  0.39375911
   0.37204367  0.71062688  0.60624089
   0.15868013  0.26334066  0.29587155
   0.84131990  0.73665937  0.70412848
   0.84131990  0.76334063  0.20412845
   0.15868013  0.23665934  0.79587152
   0.18782945  0.16482520  0.05245053
   0.81217052  0.83517483  0.94754945
   0.81217052  0.66482517  0.44754948
   0.18782945  0.33517480  0.55245055
   0.03043842  0.55239575  0.21307725
   0.96956156  0.44760425  0.78692273
   0.96956156  0.05239575  0.28692273
   0.03043842  0.94760425  0.71307727
   0.37172484  0.47122035  0.30882329
   0.62827516  0.52877965  0.69117674
   0.62827516  0.97122035  0.19117671
   0.37172484  0.02877965  0.80882326
   0.32387693  0.98807460  0.37595801
   0.67612307  0.01192540  0.62404196
   0.67612307  0.48807460  0.12404199
   0.32387693  0.51192540  0.87595804
NbOF2.5(OH)0.5_W1_VASP_PBE_DFT-D3_APO   
           1
     8.164370    0.000000    0.017447
     0.000000    5.467881    0.000000
    -1.571638    0.000000    7.371058
   Na   Ta   O    F 
     4     4     8     8
Direct configuration=    11
   0.37174497  0.78934458  0.10611679
   0.62825500  0.21065542  0.89388321
   0.62825500  0.28934458  0.39388321
   0.37174497  0.71065542  0.60611679
   0.15819183  0.26303035  0.29582061
   0.84180820  0.73696968  0.70417942
   0.84180820  0.76303032  0.20417939
   0.15819183  0.23696965  0.79582058
   0.18738836  0.16459131  0.05214255
   0.81261161  0.83540872  0.94785743
   0.81261161  0.66459128  0.44785746
   0.18738836  0.33540869  0.55214257
   0.03024395  0.55192245  0.21318104
   0.96975604  0.44807755  0.78681894
   0.96975604  0.05192245  0.28681894
   0.03024395  0.94807755  0.71318106
   0.37156988  0.47125283  0.30951921
   0.62843012  0.52874717  0.69048082
   0.62843012  0.97125283  0.19048079
   0.37156988  0.02874717  0.80951918
   0.32351598  0.98840363  0.37549948
   0.67648402  0.01159637  0.62450049
   0.67648402  0.48840363  0.12450052
   0.32351598  0.51159637  0.87549951
NbOF2.5(OH)0.5_W1_VASP_PBE_DFT-D3_APO   
           1
     8.177170    0.000000    0.004992
     0.000000    5.483322    0.000000
    -1.585364    0.000000    7.378492
   Na   Ta   O    F 
     4     4     8     8
Direct configuration=    12
   0.37131464  0.78943490  0.10594252
   0.62868533  0.21056510  0.89405748
   0.62868533  0.28943490  0.39405748
   0.37131464  0.71056510  0.60594252
   0.15868361  0.26246228  0.29592103
   0.84131642  0.73753775  0.70407900
   0.84131642  0.76246225  0.20407897
   0.15868361  0.23753772  0.79592100
   0.18651165  0.16415238  0.05193604
   0.81348832  0.83584765  0.94806394
   0.81348832  0.66415235  0.44806397
   0.18651165  0.33584762  0.55193606
   0.03008659  0.55130476  0.21322580
   0.96991340  0.44869524  0.78677418
   0.96991340  0.05130476  0.28677418
   0.03008659  0.94869524  0.71322582
   0.37084688  0.47090468  0.31076488
   0.62915312  0.52909532  0.68923515
   0.62915312  0.97090468  0.18923512
   0.37084688  0.02909532  0.81076485
   0.32305949  0.98849618  0.37459539
   0.67694051  0.01150382  0.62540458
   0.67694051  0.48849618  0.12540461
   0.32305949  0.51150382  0.87459542
NbOF2.5(OH)0.5_W1_VASP_PBE_DFT-D3_APO   
           1
     8.173044    0.000000    0.009007
     0.000000    5.478344    0.000000
    -1.580939    0.000000    7.376095
   Na   Ta   O    F 
     4     4     8     8
Direct configuration=    13
   0.37145328  0.78940586  0.10599887
   0.62854669  0.21059414  0.89400113
   0.62854669  0.28940586  0.39400113
   0.37145328  0.71059414  0.60599887
   0.15852522  0.26264490  0.29588842
   0.84147481  0.73735513  0.70411161
   0.84147481  0.76264487  0.20411158
   0.15852522  0.23735510  0.79588839
   0.18679403  0.16429348  0.05200302
   0.81320594  0.83570655  0.94799695
   0.81320594  0.66429345  0.44799698
   0.18679403  0.33570652  0.55200305
   0.03013723  0.55150333  0.21321147
   0.96986276  0.44849667  0.78678851
   0.96986276  0.05150333  0.28678851
   0.03013723  0.94849667  0.71321149
   0.37107907  0.47101660  0.31036411
   0.62892093  0.52898340  0.68963592
   0.62892093  0.97101660  0.18963589
   0.37107907  0.02898340  0.81036408
   0.32320690  0.98846643  0.37488680
   0.67679310  0.01153357  0.62511317
   0.67679310  0.48846643  0.12511320
   0.32320690  0.51153357  0.87488683
NbOF2.5(OH)0.5_W1_VASP_PBE_DFT-D3_APO   
           1
     8.172417    0.000000    0.007568
     0.000000    5.479668    0.000000
    -1.582111    0.000000    7.371217
   Na   Ta   O    F 
     4     4     8     8
Direct configuration=    14
   0.37130171  0.78951585  0.10596237
   0.62869826  0.21048415  0.89403763
   0.62869826  0.28951585  0.39403763
   0.37130171  0.71048415  0.60596237
   0.15845838  0.26271720  0.29576360
   0.84154165  0.73728283  0.70423643
   0.84154165  0.76271717  0.20423640
   0.15845838  0.23728280  0.79576357
   0.18655286  0.16442105  0.05220234
   0.81344711  0.83557898  0.94779764
   0.81344711  0.66442102  0.44779767
   0.18655286  0.33557895  0.55220236
   0.03006591  0.55127552  0.21323167
   0.96993408  0.44872448  0.78676832
   0.96993408  0.05127552  0.28676832
   0.03006591  0.94872448  0.71323168
   0.37072216  0.47066403  0.31075306
   0.62927784  0.52933597  0.68924697
   0.62927784  0.97066403  0.18924694
   0.37072216  0.02933597  0.81075303
   0.32341927  0.98793607  0.37469708
   0.67658073  0.01206393  0.62530289
   0.67658073  0.48793607  0.12530292
   0.32341927  0.51206393  0.87469711
NbOF2.5(OH)0.5_W1_VASP_PBE_DFT-D3_APO   
           1
     8.172005    0.000000    0.006621
     0.000000    5.480538    0.000000
    -1.582882    0.000000    7.368009
   Na   Ta   O    F 
     4     4     8     8
Direct configuration=    15
   0.37120204  0.78958815  0.10593833
   0.62879793  0.21041185  0.89406167
   0.62879793  0.28958815  0.39406167
   0.37120204  0.71041185  0.60593833
   0.15841441  0.26276472  0.29568147
   0.84158562  0.73723531  0.70431856
   0.84158562  0.76276469  0.20431853
   0.15841441  0.23723528  0.79568144
   0.18639430  0.16450491  0.05233345
   0.81360567  0.83549512  0.94766653
   0.81360567  0.66450488  0.44766656
   0.18639430  0.33549509  0.55233347
   0.03001902  0.55112578  0.21324495
   0.96998097  0.44887422  0.78675504
   0.96998097  0.05112578  0.28675504
   0.03001902  0.94887422  0.71324496
   0.37048754  0.47043227  0.31100892
   0.62951246  0.52956773  0.68899111
   0.62951246  0.97043227  0.18899108
   0.37048754  0.02956773  0.81100889
   0.32355888  0.98758745  0.37457229
   0.67644112  0.01241255  0.62542768
   0.67644112  0.48758745  0.12542771
   0.32355888  0.51241255  0.87457232
NbOF2.5(OH)0.5_W1_VASP_PBE_DFT-D3_APO   
           1
     8.175748    0.000000    0.005225
     0.000000    5.479747    0.000000
    -1.584870    0.000000    7.372243
   Na   Ta   O    F 
     4     4     8     8
Direct configuration=    16
   0.37111188  0.78967523  0.10596293
   0.62888809  0.21032477  0.89403707
   0.62888809  0.28967523  0.39403707
   0.37111188  0.71032477  0.60596293
   0.15826493  0.26250380  0.29568846
   0.84173510  0.73749623  0.70431157
   0.84173510  0.76250377  0.20431154
   0.15826493  0.23749620  0.79568843
   0.18637479  0.16473968  0.05240718
   0.81362518  0.83526035  0.94759280
   0.81362518  0.66473965  0.44759283
   0.18637479  0.33526032  0.55240720
   0.02999560  0.55096343  0.21319310
   0.97000439  0.44903657  0.78680689
   0.97000439  0.05096343  0.28680689
   0.02999560  0.94903657  0.71319311
   0.37048364  0.47031933  0.31123155
   0.62951636  0.52968067  0.68876848
   0.62951636  0.97031933  0.18876845
   0.37048364  0.02968067  0.81123152
   0.32372875  0.98726966  0.37454166
   0.67627125  0.01273034  0.62545831
   0.67627125  0.48726966  0.12545834
   0.32372875  0.51273034  0.87454169
NbOF2.5(OH)0.5_W1_VASP_PBE_DFT-D3_APO   
           1
     8.176442    0.000000    0.004966
     0.000000    5.479600    0.000000
    -1.585238    0.000000    7.373028
   Na   Ta   O    F 
     4     4     8     8
Direct configuration=    17
   0.37109517  0.78969137  0.10596748
   0.62890480  0.21030863  0.89403252
   0.62890480  0.28969137  0.39403252
   0.37109517  0.71030863  0.60596748
   0.15823723  0.26245543  0.29568975
   0.84176280  0.73754460  0.70431028
   0.84176280  0.76245540  0.20431025
   0.15823723  0.23754457  0.79568972
   0.18637117  0.16478321  0.05242084
   0.81362880  0.83521682  0.94757914
   0.81362880  0.66478318  0.44757917
   0.18637117  0.33521679  0.55242086
   0.02999126  0.55093334  0.21318349
   0.97000873  0.44906666  0.78681650
   0.97000873  0.05093334  0.28681650
   0.02999126  0.94906666  0.71318350
   0.37048292  0.47029839  0.31127280
   0.62951708  0.52970161  0.68872723
   0.62951708  0.97029839  0.18872720
   0.37048292  0.02970161  0.81127277
   0.32376023  0.98721075  0.37453599
   0.67623977  0.01278925  0.62546398
   0.67623977  0.48721075  0.12546401
   0.32376023  0.51278925  0.87453602
NbOF2.5(OH)0.5_W1_VASP_PBE_DFT-D3_APO   
           1
     8.177790    0.000000    0.004203
     0.000000    5.478346    0.000000
    -1.586188    0.000000    7.374193
   Na   Ta   O    F 
     4     4     8     8
Direct configuration=    18
   0.37105443  0.78974343  0.10599397
   0.62894554  0.21025657  0.89400603
   0.62894554  0.28974343  0.39400603
   0.37105443  0.71025657  0.60599397
   0.15828342  0.26224923  0.29575181
   0.84171661  0.73775080  0.70424822
   0.84171661  0.76224920  0.20424819
   0.15828342  0.23775077  0.79575178
   0.18635030  0.16496366  0.05243316
   0.81364967  0.83503637  0.94756682
   0.81364967  0.66496363  0.44756685
   0.18635030  0.33503634  0.55243318
   0.02998816  0.55081482  0.21315313
   0.97001183  0.44918518  0.78684686
   0.97001183  0.05081482  0.28684686
   0.02998816  0.94918518  0.71315314
   0.37046126  0.47021754  0.31140208
   0.62953874  0.52978246  0.68859795
   0.62953874  0.97021754  0.18859792
   0.37046126  0.02978246  0.81140205
   0.32380954  0.98708864  0.37450915
   0.67619046  0.01291136  0.62549082
   0.67619046  0.48708864  0.12549085
   0.32380954  0.51291136  0.87450918
NbOF2.5(OH)0.5_W1_VASP_PBE_DFT-D3_APO   
           1
     8.181833    0.000000    0.001913
     0.000000    5.474583    0.000000
    -1.589039    0.000000    7.377688
   Na   Ta   O    F 
     4     4     8     8
Direct configuration=    19
   0.37093224  0.78989967  0.10607340
   0.62906773  0.21010033  0.89392660
   0.62906773  0.28989967  0.39392660
   0.37093224  0.71010033  0.60607340
   0.15842196  0.26163051  0.29593797
   0.84157807  0.73836952  0.70406206
   0.84157807  0.76163048  0.20406203
   0.15842196  0.23836949  0.79593794
   0.18628768  0.16550513  0.05247009
   0.81371229  0.83449490  0.94752989
   0.81371229  0.66550510  0.44752992
   0.18628768  0.33449487  0.55247011
   0.02997885  0.55045917  0.21306206
   0.97002114  0.44954083  0.78693792
   0.97002114  0.05045917  0.28693792
   0.02997885  0.94954083  0.71306208
   0.37039631  0.46997492  0.31178987
   0.62960369  0.53002508  0.68821016
   0.62960369  0.96997492  0.18821013
   0.37039631  0.03002508  0.81178984
   0.32395744  0.98672225  0.37442868
   0.67604256  0.01327775  0.62557129
   0.67604256  0.48672225  0.12557132
   0.32395744  0.51327775  0.87442871
NbOF2.5(OH)0.5_W1_VASP_PBE_DFT-D3_APO   
           1
     8.183729    0.000000    0.000839
     0.000000    5.472818    0.000000
    -1.590376    0.000000    7.379327
   Na   Ta   O    F 
     4     4     8     8
Direct configuration=    20
   0.37087497  0.78997298  0.10611061
   0.62912500  0.21002702  0.89388939
   0.62912500  0.28997298  0.39388939
   0.37087497  0.71002702  0.60611061
   0.15848693  0.26134018  0.29602525
   0.84151310  0.73865985  0.70397478
   0.84151310  0.76134015  0.20397475
   0.15848693  0.23865982  0.79602522
   0.18625833  0.16575921  0.05248740
   0.81374164  0.83424082  0.94751258
   0.81374164  0.66575918  0.44751261
   0.18625833  0.33424079  0.55248742
   0.02997447  0.55029228  0.21301937
   0.97002552  0.44970772  0.78698061
   0.97002552  0.05029228  0.28698061
   0.02997447  0.94970772  0.71301939
   0.37036591  0.46986107  0.31197162
   0.62963409  0.53013893  0.68802841
   0.62963409  0.96986107  0.18802838
   0.37036591  0.03013893  0.81197159
   0.32402676  0.98655031  0.37439098
   0.67597324  0.01344969  0.62560899
   0.67597324  0.48655031  0.12560902
   0.32402676  0.51344969  0.87439101
NbOF2.5(OH)0.5_W1_VASP_PBE_DFT-D3_APO   
           1
     8.183195    0.000000   -0.000329
     0.000000    5.471164    0.000000
    -1.591326    0.000000    7.378669
   Na   Ta   O    F 
     4     4     8     8
Direct configuration=    21
   0.37082903  0.79004609  0.10617237
   0.62917094  0.20995391  0.89382763
   0.62917094  0.29004609  0.39382763
   0.37082903  0.70995391  0.60617237
   0.15844043  0.26116888  0.29609835
   0.84155960  0.73883115  0.70390168
   0.84155960  0.76116885  0.20390165
   0.15844043  0.23883112  0.79609832
   0.18625948  0.16597711  0.05248848
   0.81374049  0.83402292  0.94751150
   0.81374049  0.66597708  0.44751153
   0.18625948  0.33402289  0.55248850
   0.02995131  0.55000468  0.21306008
   0.97004868  0.44999532  0.78693991
   0.97004868  0.05000468  0.28693991
   0.02995131  0.94999532  0.71306009
   0.37034391  0.46974107  0.31219631
   0.62965609  0.53025893  0.68780372
   0.62965609  0.96974107  0.18780369
   0.37034391  0.03025893  0.81219628
   0.32409138  0.98632165  0.37435332
   0.67590862  0.01367835  0.62564665
   0.67590862  0.48632165  0.12564668
   0.32409138  0.51367835  0.87435335
NbOF2.5(OH)0.5_W1_VASP_PBE_DFT-D3_APO   
           1
     8.182803    0.000000   -0.001189
     0.000000    5.469948    0.000000
    -1.592025    0.000000    7.378185
   Na   Ta   O    F 
     4     4     8     8
Direct configuration=    22
   0.37079523  0.79009989  0.10621780
   0.62920474  0.20990011  0.89378220
   0.62920474  0.29009989  0.39378220
   0.37079523  0.70990011  0.60621780
   0.15840622  0.26104282  0.29615212
   0.84159381  0.73895721  0.70384791
   0.84159381  0.76104279  0.20384788
   0.15840622  0.23895718  0.79615209
   0.18626033  0.16613747  0.05248928
   0.81373964  0.83386256  0.94751070
   0.81373964  0.66613744  0.44751073
   0.18626033  0.33386253  0.55248930
   0.02993427  0.54979303  0.21309002
   0.97006572  0.45020697  0.78690997
   0.97006572  0.04979303  0.28690997
   0.02993427  0.95020697  0.71309003
   0.37032775  0.46965276  0.31236163
   0.62967225  0.53034724  0.68763840
   0.62967225  0.96965276  0.18763837
   0.37032775  0.03034724  0.81236160
   0.32413891  0.98615338  0.37432561
   0.67586109  0.01384662  0.62567436
   0.67586109  0.48615338  0.12567439
   0.32413891  0.51384662  0.87432564
NbOF2.5(OH)0.5_W1_VASP_PBE_DFT-D3_APO   
           1
     8.183262    0.000000   -0.002433
     0.000000    5.471721    0.000000
    -1.593236    0.000000    7.378506
   Na   Ta   O    F 
     4     4     8     8
Direct configuration=    23
   0.37077456  0.79015964  0.10630504
   0.62922541  0.20984036  0.89369496
   0.62922541  0.29015964  0.39369496
   0.37077456  0.70984036  0.60630504
   0.15843426  0.26095055  0.29624457
   0.84156577  0.73904948  0.70375546
   0.84156577  0.76095052  0.20375543
   0.15843426  0.23904945  0.79624454
   0.18628789  0.16624534  0.05251551
   0.81371208  0.83375469  0.94748447
   0.81371208  0.66624531  0.44748450
   0.18628789  0.33375466  0.55251553
   0.02987821  0.54948590  0.21317022
   0.97012178  0.45051410  0.78682977
   0.97012178  0.04948590  0.28682977
   0.02987821  0.95051410  0.71317023
   0.37032419  0.46954387  0.31258779
   0.62967581  0.53045613  0.68741224
   0.62967581  0.96954387  0.18741221
   0.37032419  0.03045613  0.81258776
   0.32417643  0.98585944  0.37428308
   0.67582357  0.01414056  0.62571689
   0.67582357  0.48585944  0.12571692
   0.32417643  0.51414056  0.87428311
NbOF2.5(OH)0.5_W1_VASP_PBE_DFT-D3_APO   
           1
     8.183988    0.000000   -0.004400
     0.000000    5.474524    0.000000
    -1.595150    0.000000    7.379013
   Na   Ta   O    F 
     4     4     8     8
Direct configuration=    24
   0.37074190  0.79025407  0.10644296
   0.62925807  0.20974593  0.89355704
   0.62925807  0.29025407  0.39355704
   0.37074190  0.70974593  0.60644296
   0.15847862  0.26080472  0.29639074
   0.84152141  0.73919531  0.70360929
   0.84152141  0.76080469  0.20360926
   0.15847862  0.23919528  0.79639071
   0.18633148  0.16641583  0.05255698
   0.81366849  0.83358420  0.94744300
   0.81366849  0.66641580  0.44744303
   0.18633148  0.33358417  0.55255700
   0.02978959  0.54900050  0.21329699
   0.97021040  0.45099950  0.78670299
   0.97021040  0.04900050  0.28670299
   0.02978959  0.95099950  0.71329701
   0.37031863  0.46937178  0.31294533
   0.62968137  0.53062822  0.68705470
   0.62968137  0.96937178  0.18705467
   0.37031863  0.03062822  0.81294530
   0.32423574  0.98539487  0.37421585
   0.67576426  0.01460513  0.62578412
   0.67576426  0.48539487  0.12578415
   0.32423574  0.51460513  0.87421588
NbOF2.5(OH)0.5_W1_VASP_PBE_DFT-D3_APO   
           1
     8.182399    0.000000   -0.006275
     0.000000    5.475883    0.000000
    -1.596531    0.000000    7.379140
   Na   Ta   O    F 
     4     4     8     8
Direct configuration=    25
   0.37074557  0.79025924  0.10654731
   0.62925440  0.20974076  0.89345269
   0.62925440  0.29025924  0.39345269
   0.37074557  0.70974076  0.60654731
   0.15856921  0.26064223  0.29648424
   0.84143082  0.73935780  0.70351579
   0.84143082  0.76064220  0.20351576
   0.15856921  0.23935777  0.79648421
   0.18638791  0.16646970  0.05264297
   0.81361206  0.83353033  0.94735701
   0.81361206  0.66646967  0.44735704
   0.18638791  0.33353030  0.55264299
   0.02959850  0.54879101  0.21339225
   0.97040149  0.45120899  0.78660774
   0.97040149  0.04879101  0.28660774
   0.02959850  0.95120899  0.71339226
   0.37031928  0.46926412  0.31309550
   0.62968072  0.53073588  0.68690453
   0.62968072  0.96926412  0.18690450
   0.37031928  0.03073588  0.81309547
   0.32415744  0.98528390  0.37416185
   0.67584256  0.01471610  0.62583812
   0.67584256  0.48528390  0.12583815
   0.32415744  0.51471610  0.87416188
NbOF2.5(OH)0.5_W1_VASP_PBE_DFT-D3_APO   
           1
     8.181413    0.000000   -0.007439
     0.000000    5.476726    0.000000
    -1.597388    0.000000    7.379219
   Na   Ta   O    F 
     4     4     8     8
Direct configuration=    26
   0.37074787  0.79026245  0.10661206
   0.62925210  0.20973755  0.89338794
   0.62925210  0.29026245  0.39338794
   0.37074787  0.70973755  0.60661206
   0.15862545  0.26054143  0.29654227
   0.84137458  0.73945860  0.70345776
   0.84137458  0.76054140  0.20345773
   0.15862545  0.23945857  0.79654224
   0.18642294  0.16650312  0.05269633
   0.81357703  0.83349691  0.94730365
   0.81357703  0.66650309  0.44730368
   0.18642294  0.33349688  0.55269635
   0.02947991  0.54866106  0.21345132
   0.97052008  0.45133894  0.78654866
   0.97052008  0.04866106  0.28654866
   0.02947991  0.95133894  0.71345134
   0.37031969  0.46919733  0.31318868
   0.62968031  0.53080267  0.68681135
   0.62968031  0.96919733  0.18681132
   0.37031969  0.03080267  0.81318865
   0.32410884  0.98521506  0.37412834
   0.67589116  0.01478494  0.62587163
   0.67589116  0.48521506  0.12587166