  24  24   0   0
  0.1345023E+02  0.8002600E-09  0.5407180E-09  0.7624290E-09  0.5000000E-15
   1.0000000000000000E-004
  CAR 
 NbOF2.5(OH)0.5_W1_VASP_PBE_DFT-D3_APO   
     14.53633783    -56.63388365  301      1.51811815      1.00000000
    -56.634  0.0000E+00  0.0000E+00
    -56.397  0.0000E+00  0.0000E+00
    -56.159  0.0000E+00  0.0000E+00
    -55.922  0.0000E+00  0.0000E+00
    -55.685  0.0000E+00  0.0000E+00
    -55.448  0.0000E+00  0.0000E+00
    -55.210  0.0000E+00  0.0000E+00
    -54.973  0.0000E+00  0.0000E+00
    -54.736  0.0000E+00  0.0000E+00
    -54.499  0.0000E+00  0.0000E+00
    -54.262  0.0000E+00  0.0000E+00
    -54.024  0.0000E+00  0.0000E+00
    -53.787  0.4443E-09  0.1054E-09
    -53.550  0.4546E-03  0.1078E-03
    -53.313  0.2898E-01  0.6983E-02
    -53.075  0.4288E-02  0.8000E-02
    -52.838  0.1191E-06  0.8000E-02
    -52.601  0.7382E-16  0.8000E-02
    -52.364  0.0000E+00  0.8000E-02
    -52.126  0.0000E+00  0.8000E-02
    -51.889  0.0000E+00  0.8000E-02
    -51.652  0.0000E+00  0.8000E-02
    -51.415  0.0000E+00  0.8000E-02
    -51.178  0.0000E+00  0.8000E-02
    -50.940  0.0000E+00  0.8000E-02
    -50.703  0.0000E+00  0.8000E-02
    -50.466  0.0000E+00  0.8000E-02
    -50.229  0.0000E+00  0.8000E-02
    -49.991  0.0000E+00  0.8000E-02
    -49.754  0.0000E+00  0.8000E-02
    -49.517  0.0000E+00  0.8000E-02
    -49.280  0.0000E+00  0.8000E-02
    -49.042  0.0000E+00  0.8000E-02
    -48.805  0.0000E+00  0.8000E-02
    -48.568  0.0000E+00  0.8000E-02
    -48.331  0.0000E+00  0.8000E-02
    -48.093  0.0000E+00  0.8000E-02
    -47.856  0.3798E-15  0.8000E-02
    -47.619  0.3146E-06  0.8000E-02
    -47.382  0.5981E-02  0.9419E-02
    -47.145  0.2749E-01  0.1594E-01
    -46.907  0.2549E-03  0.1600E-01
    -46.670  0.1227E-09  0.1600E-01
    -46.433  0.0000E+00  0.1600E-01
    -46.196  0.0000E+00  0.1600E-01
    -45.958  0.0000E+00  0.1600E-01
    -45.721  0.0000E+00  0.1600E-01
    -45.484  0.0000E+00  0.1600E-01
    -45.247  0.0000E+00  0.1600E-01
    -45.009  0.0000E+00  0.1600E-01
    -44.772  0.0000E+00  0.1600E-01
    -44.535  0.0000E+00  0.1600E-01
    -44.298  0.0000E+00  0.1600E-01
    -44.060  0.0000E+00  0.1600E-01
    -43.823  0.0000E+00  0.1600E-01
    -43.586  0.0000E+00  0.1600E-01
    -43.349  0.0000E+00  0.1600E-01
    -43.112  0.0000E+00  0.1600E-01
    -42.874  0.0000E+00  0.1600E-01
    -42.637  0.0000E+00  0.1600E-01
    -42.400  0.0000E+00  0.1600E-01
    -42.163  0.0000E+00  0.1600E-01
    -41.925  0.0000E+00  0.1600E-01
    -41.688  0.0000E+00  0.1600E-01
    -41.451  0.0000E+00  0.1600E-01
    -41.214  0.0000E+00  0.1600E-01
    -40.976  0.0000E+00  0.1600E-01
    -40.739  0.0000E+00  0.1600E-01
    -40.502  0.0000E+00  0.1600E-01
    -40.265  0.0000E+00  0.1600E-01
    -40.027  0.0000E+00  0.1600E-01
    -39.790  0.0000E+00  0.1600E-01
    -39.553  0.0000E+00  0.1600E-01
    -39.316  0.0000E+00  0.1600E-01
    -39.079  0.0000E+00  0.1600E-01
    -38.841  0.0000E+00  0.1600E-01
    -38.604  0.0000E+00  0.1600E-01
    -38.367  0.0000E+00  0.1600E-01
    -38.130  0.0000E+00  0.1600E-01
    -37.892  0.0000E+00  0.1600E-01
    -37.655  0.0000E+00  0.1600E-01
    -37.418  0.0000E+00  0.1600E-01
    -37.181  0.0000E+00  0.1600E-01
    -36.943  0.0000E+00  0.1600E-01
    -36.706  0.0000E+00  0.1600E-01
    -36.469  0.0000E+00  0.1600E-01
    -36.232  0.0000E+00  0.1600E-01
    -35.995  0.0000E+00  0.1600E-01
    -35.757  0.0000E+00  0.1600E-01
    -35.520  0.0000E+00  0.1600E-01
    -35.283  0.0000E+00  0.1600E-01
    -35.046  0.0000E+00  0.1600E-01
    -34.808  0.0000E+00  0.1600E-01
    -34.571  0.0000E+00  0.1600E-01
    -34.334  0.0000E+00  0.1600E-01
    -34.097  0.0000E+00  0.1600E-01
    -33.859  0.0000E+00  0.1600E-01
    -33.622  0.0000E+00  0.1600E-01
    -33.385  0.0000E+00  0.1600E-01
    -33.148  0.0000E+00  0.1600E-01
    -32.910  0.0000E+00  0.1600E-01
    -32.673  0.0000E+00  0.1600E-01
    -32.436  0.0000E+00  0.1600E-01
    -32.199  0.0000E+00  0.1600E-01
    -31.962  0.0000E+00  0.1600E-01
    -31.724  0.0000E+00  0.1600E-01
    -31.487  0.0000E+00  0.1600E-01
    -31.250  0.0000E+00  0.1600E-01
    -31.013  0.0000E+00  0.1600E-01
    -30.775  0.0000E+00  0.1600E-01
    -30.538  0.0000E+00  0.1600E-01
    -30.301  0.1092E-17  0.1600E-01
    -30.064  0.9270E-08  0.1600E-01
    -29.826  0.1731E-02  0.1641E-01
    -29.589  0.6014E-01  0.3068E-01
    -29.352  0.3916E-01  0.3997E-01
    -29.115  0.1374E-03  0.4000E-01
    -28.877  0.5337E-10  0.4000E-01
    -28.640  0.0000E+00  0.4000E-01
    -28.403  0.0000E+00  0.4000E-01
    -28.166  0.0000E+00  0.4000E-01
    -27.929  0.0000E+00  0.4000E-01
    -27.691  0.0000E+00  0.4000E-01
    -27.454  0.0000E+00  0.4000E-01
    -27.217  0.0000E+00  0.4000E-01
    -26.980  0.0000E+00  0.4000E-01
    -26.742  0.0000E+00  0.4000E-01
    -26.505  0.0000E+00  0.4000E-01
    -26.268  0.0000E+00  0.4000E-01
    -26.031  0.0000E+00  0.4000E-01
    -25.793  0.0000E+00  0.4000E-01
    -25.556  0.0000E+00  0.4000E-01
    -25.319  0.0000E+00  0.4000E-01
    -25.082  0.0000E+00  0.4000E-01
    -24.845  0.0000E+00  0.4000E-01
    -24.607  0.0000E+00  0.4000E-01
    -24.370  0.0000E+00  0.4000E-01
    -24.133  0.0000E+00  0.4000E-01
    -23.896  0.0000E+00  0.4000E-01
    -23.658  0.0000E+00  0.4000E-01
    -23.421  0.0000E+00  0.4000E-01
    -23.184  0.0000E+00  0.4000E-01
    -22.947  0.0000E+00  0.4000E-01
    -22.709  0.0000E+00  0.4000E-01
    -22.472  0.0000E+00  0.4000E-01
    -22.235  0.0000E+00  0.4000E-01
    -21.998  0.0000E+00  0.4000E-01
    -21.760  0.0000E+00  0.4000E-01
    -21.523  0.0000E+00  0.4000E-01
    -21.286  0.0000E+00  0.4000E-01
    -21.049  0.0000E+00  0.4000E-01
    -20.812  0.5491E-15  0.4000E-01
    -20.574  0.1927E-06  0.4000E-01
    -20.337  0.3560E-02  0.4084E-01
    -20.100  0.4604E-01  0.5177E-01
    -19.863  0.1777E-01  0.5598E-01
    -19.625  0.7683E-04  0.5600E-01
    -19.388  0.1604E-02  0.5638E-01
    -19.151  0.5802E-01  0.7015E-01
    -18.914  0.4097E-01  0.7986E-01
    -18.676  0.5720E-03  0.8000E-01
    -18.439  0.1887E-08  0.8000E-01
    -18.202  0.0000E+00  0.8000E-01
    -17.965  0.0000E+00  0.8000E-01
    -17.727  0.0000E+00  0.8000E-01
    -17.490  0.0000E+00  0.8000E-01
    -17.253  0.0000E+00  0.8000E-01
    -17.016  0.0000E+00  0.8000E-01
    -16.779  0.0000E+00  0.8000E-01
    -16.541  0.0000E+00  0.8000E-01
    -16.304  0.0000E+00  0.8000E-01
    -16.067  0.0000E+00  0.8000E-01
    -15.830  0.3713E-14  0.8000E-01
    -15.592  0.3524E-06  0.8000E-01
    -15.355  0.1359E-02  0.8032E-01
    -15.118  0.1123E-01  0.8299E-01
    -14.881  0.3203E-01  0.9059E-01
    -14.643  0.6105E-02  0.9203E-01
    -14.406  0.7275E-02  0.9376E-01
    -14.169  0.5004E-02  0.9495E-01
    -13.932  0.4431E-02  0.9600E-01
    -13.695  0.6354E-05  0.9600E-01
    -13.457  0.4575E-12  0.9600E-01
    -13.220  0.0000E+00  0.9600E-01
    -12.983  0.0000E+00  0.9600E-01
    -12.746  0.0000E+00  0.9600E-01
    -12.508  0.0000E+00  0.9600E-01
    -12.271  0.0000E+00  0.9600E-01
    -12.034  0.0000E+00  0.9600E-01
    -11.797  0.0000E+00  0.9600E-01
    -11.559  0.0000E+00  0.9600E-01
    -11.322  0.0000E+00  0.9600E-01
    -11.085  0.0000E+00  0.9600E-01
    -10.848  0.0000E+00  0.9600E-01
    -10.610  0.0000E+00  0.9600E-01
    -10.373  0.0000E+00  0.9600E-01
    -10.136  0.0000E+00  0.9600E-01
     -9.899  0.0000E+00  0.9600E-01
     -9.662  0.0000E+00  0.9600E-01
     -9.424  0.0000E+00  0.9600E-01
     -9.187  0.0000E+00  0.9600E-01
     -8.950  0.0000E+00  0.9600E-01
     -8.713  0.0000E+00  0.9600E-01
     -8.475  0.0000E+00  0.9600E-01
     -8.238  0.0000E+00  0.9600E-01
     -8.001  0.0000E+00  0.9600E-01
     -7.764  0.0000E+00  0.9600E-01
     -7.526  0.0000E+00  0.9600E-01
     -7.289  0.0000E+00  0.9600E-01
     -7.052  0.0000E+00  0.9600E-01
     -6.815  0.0000E+00  0.9600E-01
     -6.577  0.0000E+00  0.9600E-01
     -6.340  0.0000E+00  0.9600E-01
     -6.103  0.0000E+00  0.9600E-01
     -5.866  0.0000E+00  0.9600E-01
     -5.629  0.0000E+00  0.9600E-01
     -5.391  0.0000E+00  0.9600E-01
     -5.154  0.0000E+00  0.9600E-01
     -4.917  0.0000E+00  0.9600E-01
     -4.680  0.0000E+00  0.9600E-01
     -4.442  0.0000E+00  0.9600E-01
     -4.205  0.9185E-14  0.9600E-01
     -3.968  0.7217E-06  0.9600E-01
     -3.731  0.3281E-02  0.9678E-01
     -3.493  0.1881E-01  0.1012E+00
     -3.256  0.1301E-01  0.1043E+00
     -3.019  0.1466E-01  0.1078E+00
     -2.782  0.1949E-01  0.1124E+00
     -2.545  0.2547E-01  0.1185E+00
     -2.307  0.2641E-01  0.1247E+00
     -2.070  0.2170E-01  0.1299E+00
     -1.833  0.2332E-01  0.1354E+00
     -1.596  0.1323E-01  0.1386E+00
     -1.358  0.1723E-01  0.1426E+00
     -1.121  0.3061E-01  0.1499E+00
     -0.884  0.3257E-01  0.1576E+00
     -0.647  0.3370E-01  0.1656E+00
     -0.409  0.1913E-01  0.1702E+00
     -0.172  0.1308E-01  0.1733E+00
      0.065  0.2336E-01  0.1788E+00
      0.302  0.1774E-01  0.1830E+00
      0.540  0.1505E-01  0.1866E+00
      0.777  0.1297E-01  0.1897E+00
      1.014  0.9769E-02  0.1920E+00
      1.251  0.8139E-04  0.1920E+00
      1.488  0.1269E-09  0.1920E+00
      1.726  0.0000E+00  0.1920E+00
      1.963  0.0000E+00  0.1920E+00
      2.200  0.0000E+00  0.1920E+00
      2.437  0.0000E+00  0.1920E+00
      2.675  0.0000E+00  0.1920E+00
      2.912  0.0000E+00  0.1920E+00
      3.149  0.0000E+00  0.1920E+00
      3.386  0.0000E+00  0.1920E+00
      3.624  0.0000E+00  0.1920E+00
      3.861  0.1186E-12  0.1920E+00
      4.098  0.2535E-05  0.1920E+00
      4.335  0.2749E-02  0.1927E+00
      4.573  0.8985E-02  0.1948E+00
      4.810  0.8260E-02  0.1967E+00
      5.047  0.9895E-02  0.1991E+00
      5.284  0.6658E-02  0.2007E+00
      5.521  0.1433E-01  0.2041E+00
      5.759  0.1139E-01  0.2068E+00
      5.996  0.1024E-01  0.2092E+00
      6.233  0.9798E-02  0.2115E+00
      6.470  0.1127E-01  0.2142E+00
      6.708  0.6810E-02  0.2158E+00
      6.945  0.7908E-03  0.2160E+00
      7.182  0.4601E-06  0.2160E+00
      7.419  0.3206E-03  0.2161E+00
      7.657  0.5079E-03  0.2162E+00
      7.894  0.1608E-02  0.2166E+00
      8.131  0.2864E-02  0.2173E+00
      8.368  0.1041E-01  0.2197E+00
      8.605  0.7886E-02  0.2216E+00
      8.843  0.6500E-02  0.2231E+00
      9.080  0.6251E-02  0.2246E+00
      9.317  0.8717E-02  0.2267E+00
      9.554  0.6717E-02  0.2283E+00
      9.792  0.5276E-02  0.2295E+00
     10.029  0.8988E-02  0.2317E+00
     10.266  0.6930E-02  0.2333E+00
     10.503  0.7489E-02  0.2351E+00
     10.741  0.6804E-02  0.2367E+00
     10.978  0.7368E-02  0.2385E+00
     11.215  0.4712E-02  0.2396E+00
     11.452  0.1802E-02  0.2400E+00
     11.690  0.1323E-04  0.2400E+00
     11.927  0.1192E-10  0.2400E+00
     12.164  0.0000E+00  0.2400E+00
     12.401  0.0000E+00  0.2400E+00
     12.638  0.0000E+00  0.2400E+00
     12.876  0.0000E+00  0.2400E+00
     13.113  0.0000E+00  0.2400E+00
     13.350  0.0000E+00  0.2400E+00
     13.587  0.0000E+00  0.2400E+00
     13.825  0.0000E+00  0.2400E+00
     14.062  0.0000E+00  0.2400E+00
     14.299  0.0000E+00  0.2400E+00
     14.536  0.0000E+00  0.2400E+00
