NbOF2.5(OH)0.5_W1_VASP_PBE_DFT-D3_APO   
           1
     8.002600    0.000000    0.000000
     0.000000    5.407180    0.000000
    -1.574218    0.000000    7.460002
   Na   Nb   O    F 
     4     4     8     8
Direct configuration=     1
   0.36660001  0.77999997  0.11560000
   0.63339996  0.22000003  0.88440001
   0.63339996  0.27999997  0.38440001
   0.36660001  0.72000003  0.61559999
   0.15493999  0.26440000  0.31799999
   0.84505999  0.73560000  0.68200004
   0.84505999  0.76440000  0.18200001
   0.15493999  0.23560000  0.81799996
   0.18250001  0.15620001  0.07090000
   0.81749999  0.84380001  0.92909998
   0.81749999  0.65619999  0.42910001
   0.18250001  0.34380001  0.57090002
   0.04250000  0.54390001  0.21170001
   0.95749998  0.45609999  0.78829998
   0.95749998  0.04390001  0.28829998
   0.04250000  0.95609999  0.71170002
   0.37689999  0.44400001  0.31369999
   0.62310004  0.55599999  0.68630004
   0.62310004  0.94400001  0.18630001
   0.37689999  0.05599999  0.81369996
   0.31040001  0.97659999  0.37830001
   0.68959999  0.02340001  0.62169999
   0.68959999  0.47659999  0.12169999
   0.31040001  0.52340001  0.87830001
Direct configuration=     2
   0.36552978  0.77975533  0.11600263
   0.63447019  0.22024467  0.88399737
   0.63447019  0.27975533  0.38399737
   0.36552978  0.72024467  0.61600263
   0.15660960  0.26140005  0.32351956
   0.84339038  0.73859995  0.67648047
   0.84339038  0.76140005  0.17648044
   0.15660960  0.23859995  0.82351953
   0.18092562  0.15716650  0.06069292
   0.81907438  0.84283351  0.93930705
   0.81907438  0.65716649  0.43930708
   0.18092562  0.34283351  0.56069295
   0.03827608  0.55404264  0.20905691
   0.96172390  0.44595736  0.79094308
   0.96172390  0.05404264  0.29094308
   0.03827608  0.94595736  0.70905692
   0.37745438  0.44664466  0.31504563
   0.62254565  0.55335534  0.68495440
   0.62254565  0.94664466  0.18495437
   0.37745438  0.05335534  0.81504560
   0.31346689  0.97139839  0.38086286
   0.68653311  0.02860161  0.61913714
   0.68653311  0.47139839  0.11913714
   0.31346689  0.52860161  0.88086286
Direct configuration=     3
   0.36549821  0.77974811  0.11601451
   0.63450176  0.22025189  0.88398550
   0.63450176  0.27974811  0.38398550
   0.36549821  0.72025189  0.61601450
   0.15665885  0.26131156  0.32368237
   0.84334113  0.73868844  0.67631766
   0.84334113  0.76131156  0.17631763
   0.15665885  0.23868844  0.82368234
   0.18087918  0.15719501  0.06039184
   0.81912082  0.84280501  0.93960814
   0.81912082  0.65719499  0.43960817
   0.18087918  0.34280501  0.56039186
   0.03815149  0.55434182  0.20897894
   0.96184849  0.44565818  0.79102104
   0.96184849  0.05434182  0.29102104
   0.03815149  0.94565818  0.70897896
   0.37747073  0.44672267  0.31508532
   0.62252930  0.55327733  0.68491471
   0.62252930  0.94672267  0.18491468
   0.37747073  0.05327733  0.81508529
   0.31355736  0.97124495  0.38093846
   0.68644264  0.02875505  0.61906154
   0.68644264  0.47124495  0.11906154
   0.31355736  0.52875505  0.88093846
Direct configuration=     4
   0.36461503  0.77978578  0.11674585
   0.63538494  0.22021422  0.88325415
   0.63538494  0.27978578  0.38325415
   0.36461503  0.72021422  0.61674585
   0.15477579  0.26287373  0.32236454
   0.84522419  0.73712627  0.67763549
   0.84522419  0.76287373  0.17763546
   0.15477579  0.23712627  0.82236451
   0.18091008  0.15571942  0.05909655
   0.81908992  0.84428060  0.94090343
   0.81908992  0.65571940  0.44090346
   0.18091008  0.34428060  0.55909657
   0.03840484  0.55491621  0.20951966
   0.96159514  0.44508379  0.79048033
   0.96159514  0.05491621  0.29048033
   0.03840484  0.94508379  0.70951967
   0.37767721  0.44825317  0.31514194
   0.62232282  0.55174683  0.68485809
   0.62232282  0.94825317  0.18485806
   0.37767721  0.05174683  0.81514191
   0.31491212  0.96986232  0.38101348
   0.68508788  0.03013768  0.61898652
   0.68508788  0.46986232  0.11898652
   0.31491212  0.53013768  0.88101348
Direct configuration=     5
   0.36488250  0.77977437  0.11652437
   0.63511747  0.22022563  0.88347564
   0.63511747  0.27977437  0.38347564
   0.36488250  0.72022563  0.61652436
   0.15534606  0.26240064  0.32276363
   0.84465392  0.73759936  0.67723640
   0.84465392  0.76240064  0.17723637
   0.15534606  0.23759936  0.82276360
   0.18090072  0.15616629  0.05948882
   0.81909928  0.84383372  0.94051116
   0.81909928  0.65616628  0.44051119
   0.18090072  0.34383372  0.55948884
   0.03832812  0.55474226  0.20935590
   0.96167186  0.44525774  0.79064408
   0.96167186  0.05474226  0.29064408
   0.03832812  0.94525774  0.70935592
   0.37761468  0.44778967  0.31512479
   0.62238535  0.55221033  0.68487524
   0.62238535  0.94778967  0.18487521
   0.37761468  0.05221033  0.81512476
   0.31450184  0.97028104  0.38099076
   0.68549816  0.02971896  0.61900924
   0.68549816  0.47028104  0.11900924
   0.31450184  0.52971896  0.88099076
Direct configuration=     6
   0.36396663  0.77985098  0.11756746
   0.63603334  0.22014902  0.88243255
   0.63603334  0.27985098  0.38243255
   0.36396663  0.72014902  0.61756745
   0.15610402  0.26359629  0.32154297
   0.84389597  0.73640371  0.67845706
   0.84389597  0.76359629  0.17845703
   0.15610402  0.23640371  0.82154294
   0.18061137  0.15441491  0.05837883
   0.81938863  0.84558510  0.94162114
   0.81938863  0.65441490  0.44162117
   0.18061137  0.34558510  0.55837886
   0.03915611  0.55510041  0.20992847
   0.96084387  0.44489959  0.79007151
   0.96084387  0.05510041  0.29007151
   0.03915611  0.94489959  0.70992849
   0.37713999  0.44917068  0.31503265
   0.62286004  0.55082932  0.68496738
   0.62286004  0.94917068  0.18496735
   0.37713999  0.05082932  0.81503262
   0.31515752  0.97031432  0.38056892
   0.68484248  0.02968568  0.61943108
   0.68484248  0.47031432  0.11943108
   0.31515752  0.52968568  0.88056892
Direct configuration=     7
   0.36334973  0.77990258  0.11827004
   0.63665024  0.22009742  0.88172997
   0.63665024  0.27990258  0.38172997
   0.36334973  0.72009742  0.61827003
   0.15661455  0.26440162  0.32072077
   0.84338544  0.73559838  0.67927926
   0.84338544  0.76440162  0.17927923
   0.15661455  0.23559838  0.82072074
   0.18041648  0.15323526  0.05763120
   0.81958352  0.84676476  0.94236878
   0.81958352  0.65323524  0.44236881
   0.18041648  0.34676476  0.55763122
   0.03971381  0.55534165  0.21031413
   0.96028617  0.44465835  0.78968586
   0.96028617  0.05534165  0.28968586
   0.03971381  0.94465835  0.71031414
   0.37682026  0.45010087  0.31497058
   0.62317977  0.54989913  0.68502945
   0.62317977  0.95010087  0.18502942
   0.37682026  0.04989913  0.81497055
   0.31559916  0.97033674  0.38028478
   0.68440084  0.02966326  0.61971522
   0.68440084  0.47033674  0.11971522
   0.31559916  0.52966326  0.88028478
Direct configuration=     8
   0.36253174  0.77995611  0.11910240
   0.63746823  0.22004389  0.88089761
   0.63746823  0.27995611  0.38089761
   0.36253174  0.72004389  0.61910239
   0.15676268  0.26388728  0.31993399
   0.84323730  0.73611272  0.68006604
   0.84323730  0.76388728  0.18006601
   0.15676268  0.23611272  0.81993396
   0.18014250  0.15256542  0.05684194
   0.81985750  0.84743459  0.94315804
   0.81985750  0.65256541  0.44315807
   0.18014250  0.34743459  0.55684196
   0.03935494  0.55667848  0.21029320
   0.96064505  0.44332152  0.78970678
   0.96064505  0.05667848  0.28970678
   0.03935494  0.94332152  0.71029322
   0.37706777  0.45106888  0.31471039
   0.62293226  0.54893112  0.68528964
   0.62293226  0.95106888  0.18528961
   0.37706777  0.04893112  0.81471036
   0.31562071  0.97174281  0.37980351
   0.68437929  0.02825719  0.62019649
   0.68437929  0.47174281  0.12019649
   0.31562071  0.52825719  0.87980351
Direct configuration=     9
   0.36205531  0.77998729  0.11958720
   0.63794466  0.22001271  0.88041280
   0.63794466  0.27998729  0.38041280
   0.36205531  0.72001271  0.61958720
   0.15684896  0.26358770  0.31947573
   0.84315102  0.73641230  0.68052430
   0.84315102  0.76358770  0.18052427
   0.15684896  0.23641230  0.81947570
   0.17998292  0.15217528  0.05638224
   0.82001708  0.84782473  0.94361774
   0.82001708  0.65217527  0.44361777
   0.17998292  0.34782473  0.55638226
   0.03914591  0.55745711  0.21028102
   0.96085407  0.44254289  0.78971897
   0.96085407  0.05745711  0.28971897
   0.03914591  0.94254289  0.71028103
   0.37721192  0.45163269  0.31455885
   0.62278810  0.54836731  0.68544118
   0.62278810  0.95163269  0.18544115
   0.37721192  0.04836731  0.81455882
   0.31563326  0.97256177  0.37952320
   0.68436674  0.02743823  0.62047680
   0.68436674  0.47256177  0.12047680
   0.31563326  0.52743823  0.87952320
Direct configuration=    10
   0.36149544  0.78000966  0.11985375
   0.63850453  0.21999034  0.88014626
   0.63850453  0.28000966  0.38014626
   0.36149544  0.71999034  0.61985374
   0.15637940  0.26444391  0.31913568
   0.84362058  0.73555609  0.68086435
   0.84362058  0.76444391  0.18086432
   0.15637940  0.23555609  0.81913565
   0.17986691  0.15267829  0.05594934
   0.82013309  0.84732173  0.94405064
   0.82013309  0.65267827  0.44405067
   0.17986691  0.34732173  0.55594936
   0.03910104  0.55793650  0.21008756
   0.96089894  0.44206350  0.78991242
   0.96089894  0.05793650  0.28991242
   0.03910104  0.94206350  0.71008758
   0.37764287  0.45204740  0.31411024
   0.62235716  0.54795260  0.68588979
   0.62235716  0.95204740  0.18588976
   0.37764287  0.04795260  0.81411021
   0.31592438  0.97342444  0.37955318
   0.68407562  0.02657556  0.62044682
   0.68407562  0.47342444  0.12044682
   0.31592438  0.52657556  0.87955318
Direct configuration=    11
   0.36148634  0.78001003  0.11985808
   0.63851363  0.21998997  0.88014193
   0.63851363  0.28001003  0.38014193
   0.36148634  0.71998997  0.61985807
   0.15637177  0.26445782  0.31913015
   0.84362821  0.73554218  0.68086988
   0.84362821  0.76445782  0.18086985
   0.15637177  0.23554218  0.81913012
   0.17986502  0.15268646  0.05594230
   0.82013498  0.84731355  0.94405768
   0.82013498  0.65268645  0.44405771
   0.17986502  0.34731355  0.55594232
   0.03910031  0.55794429  0.21008442
   0.96089967  0.44205571  0.78991556
   0.96089967  0.05794429  0.28991556
   0.03910031  0.94205571  0.71008444
   0.37764987  0.45205414  0.31410295
   0.62235016  0.54794586  0.68589708
   0.62235016  0.95205414  0.18589705
   0.37764987  0.04794586  0.81410292
   0.31592911  0.97343846  0.37955367
   0.68407089  0.02656154  0.62044633
   0.68407089  0.47343846  0.12044633
   0.31592911  0.52656154  0.87955367
Direct configuration=    12
   0.36113177  0.78001692  0.11996179
   0.63886820  0.21998308  0.88003822
   0.63886820  0.28001692  0.38003822
   0.36113177  0.71998308  0.61996178
   0.15662783  0.26518658  0.31899891
   0.84337216  0.73481342  0.68100112
   0.84337216  0.76518658  0.18100109
   0.15662783  0.23481342  0.81899888
   0.17973115  0.15314195  0.05580111
   0.82026885  0.84685806  0.94419887
   0.82026885  0.65314194  0.44419890
   0.17973115  0.34685806  0.55580113
   0.03921221  0.55825775  0.20989016
   0.96078777  0.44174225  0.79010982
   0.96078777  0.05825775  0.29010982
   0.03921221  0.94174225  0.70989018
   0.37778808  0.45215423  0.31371494
   0.62221194  0.54784577  0.68628509
   0.62221194  0.95215423  0.18628506
   0.37778808  0.04784577  0.81371491
   0.31604370  0.97418424  0.37959783
   0.68395630  0.02581576  0.62040217
   0.68395630  0.47418424  0.12040217
   0.31604370  0.52581576  0.87959783
Direct configuration=    13
   0.36083748  0.78002263  0.12004786
   0.63916249  0.21997737  0.87995214
   0.63916249  0.28002263  0.37995214
   0.36083748  0.71997737  0.62004786
   0.15684036  0.26579145  0.31888998
   0.84315962  0.73420855  0.68111005
   0.84315962  0.76579145  0.18111002
   0.15684036  0.23420855  0.81888995
   0.17962003  0.15352001  0.05568392
   0.82037997  0.84648000  0.94431606
   0.82037997  0.65352000  0.44431609
   0.17962003  0.34648000  0.55568394
   0.03930508  0.55851792  0.20972893
   0.96069490  0.44148208  0.79027106
   0.96069490  0.05851792  0.29027106
   0.03930508  0.94148208  0.70972894
   0.37790280  0.45223732  0.31339289
   0.62209723  0.54776268  0.68660714
   0.62209723  0.95223732  0.18660711
   0.37790280  0.04776268  0.81339286
   0.31613881  0.97480323  0.37963449
   0.68386119  0.02519677  0.62036551
   0.68386119  0.47480323  0.12036551
   0.31613881  0.52519677  0.87963449
Direct configuration=    14
   0.36067452  0.78000850  0.11998793
   0.63932545  0.21999150  0.88001207
   0.63932545  0.28000850  0.38001207
   0.36067452  0.71999150  0.61998793
   0.15686828  0.26601016  0.31864612
   0.84313170  0.73398984  0.68135391
   0.84313170  0.76601016  0.18135388
   0.15686828  0.23398984  0.81864609
   0.17961325  0.15349882  0.05594099
   0.82038675  0.84650119  0.94405899
   0.82038675  0.65349881  0.44405902
   0.17961325  0.34650119  0.55594101
   0.03930693  0.55886019  0.20968950
   0.96069305  0.44113981  0.79031048
   0.96069305  0.05886019  0.29031048
   0.03930693  0.94113981  0.70968952
   0.37792847  0.45220129  0.31319642
   0.62207155  0.54779871  0.68680361
   0.62207155  0.95220129  0.18680358
   0.37792847  0.04779871  0.81319639
   0.31620670  0.97509153  0.37968111
   0.68379330  0.02490847  0.62031889
   0.68379330  0.47509153  0.12031889
   0.31620670  0.52490847  0.87968111
Direct configuration=    15
   0.36058304  0.78000056  0.11995429
   0.63941693  0.21999944  0.88004572
   0.63941693  0.28000056  0.38004572
   0.36058304  0.71999944  0.61995428
   0.15688395  0.26613293  0.31850922
   0.84311603  0.73386707  0.68149081
   0.84311603  0.76613293  0.18149078
   0.15688395  0.23386707  0.81850919
   0.17960944  0.15348693  0.05608529
   0.82039056  0.84651309  0.94391468
   0.82039056  0.65348691  0.44391471
   0.17960944  0.34651309  0.55608532
   0.03930797  0.55905232  0.20966738
   0.96069201  0.44094768  0.79033261
   0.96069201  0.05905232  0.29033261
   0.03930797  0.94094768  0.70966739
   0.37794289  0.45218107  0.31308613
   0.62205714  0.54781893  0.68691390
   0.62205714  0.95218107  0.18691387
   0.37794289  0.04781893  0.81308610
   0.31624481  0.97525336  0.37970728
   0.68375519  0.02474664  0.62029272
   0.68375519  0.47525336  0.12029272
   0.31624481  0.52474664  0.87970728
Direct configuration=    16
   0.36046649  0.77999242  0.11983123
   0.63953348  0.22000758  0.88016877
   0.63953348  0.27999242  0.38016877
   0.36046649  0.72000758  0.61983123
   0.15686378  0.26627553  0.31853501
   0.84313620  0.73372447  0.68146502
   0.84313620  0.76627553  0.18146499
   0.15686378  0.23372447  0.81853498
   0.17961383  0.15342740  0.05608163
   0.82038617  0.84657262  0.94391835
   0.82038617  0.65342738  0.44391838
   0.17961383  0.34657262  0.55608165
   0.03932507  0.55942145  0.20971525
   0.96067491  0.44057855  0.79028474
   0.96067491  0.05942145  0.29028474
   0.03932507  0.94057855  0.70971526
   0.37795175  0.45216637  0.31295954
   0.62204828  0.54783363  0.68704049
   0.62204828  0.95216637  0.18704046
   0.37795175  0.04783363  0.81295951
   0.31629402  0.97541748  0.37979440
   0.68370598  0.02458252  0.62020560
   0.68370598  0.47541748  0.12020560
   0.31629402  0.52458252  0.87979440
Direct configuration=    17
   0.36019393  0.77997337  0.11954345
   0.63980604  0.22002663  0.88045656
   0.63980604  0.27997337  0.38045656
   0.36019393  0.72002663  0.61954344
   0.15681660  0.26660902  0.31859533
   0.84318338  0.73339098  0.68140470
   0.84318338  0.76660902  0.18140467
   0.15681660  0.23339098  0.81859530
   0.17962410  0.15328818  0.05607305
   0.82037590  0.84671184  0.94392693
   0.82037590  0.65328816  0.44392696
   0.17962410  0.34671184  0.55607307
   0.03936508  0.56028468  0.20982720
   0.96063490  0.43971532  0.79017278
   0.96063490  0.06028468  0.29017278
   0.03936508  0.93971532  0.70982722
   0.37797248  0.45213200  0.31266349
   0.62202755  0.54786800  0.68733654
   0.62202755  0.95213200  0.18733651
   0.37797248  0.04786800  0.81266346
   0.31640912  0.97580129  0.37999812
   0.68359088  0.02419871  0.62000188
   0.68359088  0.47580129  0.12000188
   0.31640912  0.52419871  0.87999812
Direct configuration=    18
   0.36009517  0.77999769  0.11938773
   0.63990480  0.22000231  0.88061228
   0.63990480  0.27999769  0.38061228
   0.36009517  0.72000231  0.61938772
   0.15696274  0.26681771  0.31873382
   0.84303724  0.73318229  0.68126621
   0.84303724  0.76681771  0.18126618
   0.15696274  0.23318229  0.81873379
   0.17960742  0.15315579  0.05599860
   0.82039258  0.84684423  0.94400138
   0.82039258  0.65315577  0.44400141
   0.17960742  0.34684423  0.55599862
   0.03959757  0.56057025  0.20998656
   0.96040241  0.43942975  0.79001343
   0.96040241  0.06057025  0.29001343
   0.03959757  0.93942975  0.70998657
   0.37797071  0.45214191  0.31254168
   0.62202932  0.54785809  0.68745835
   0.62202932  0.95214191  0.18745832
   0.37797071  0.04785809  0.81254165
   0.31635869  0.97605212  0.38006574
   0.68364131  0.02394788  0.61993426
   0.68364131  0.47605212  0.11993426
   0.31635869  0.52394788  0.88006574
Direct configuration=    19
   0.36008881  0.77999925  0.11937770
   0.63991116  0.22000075  0.88062230
   0.63991116  0.27999925  0.38062230
   0.36008881  0.72000075  0.61937770
   0.15697215  0.26683115  0.31874274
   0.84302783  0.73316885  0.68125729
   0.84302783  0.76683115  0.18125726
   0.15697215  0.23316885  0.81874271
   0.17960635  0.15314727  0.05599381
   0.82039365  0.84685275  0.94400617
   0.82039365  0.65314725  0.44400620
   0.17960635  0.34685275  0.55599383
   0.03961254  0.56058864  0.20999682
   0.96038744  0.43941136  0.79000317
   0.96038744  0.06058864  0.29000317
   0.03961254  0.93941136  0.70999683
   0.37797059  0.45214255  0.31253384
   0.62202944  0.54785745  0.68746619
   0.62202944  0.95214255  0.18746616
   0.37797059  0.04785745  0.81253381
   0.31635544  0.97606827  0.38007009
   0.68364456  0.02393173  0.61992991
   0.68364456  0.47606827  0.11992991
   0.31635544  0.52393173  0.88007009
Direct configuration=    20
   0.36000692  0.78004366  0.11923769
   0.63999305  0.21995634  0.88076232
   0.63999305  0.28004366  0.38076232
   0.36000692  0.71995634  0.61923768
   0.15689794  0.26702611  0.31876124
   0.84310204  0.73297389  0.68123879
   0.84310204  0.76702611  0.18123876
   0.15689794  0.23297389  0.81876121
   0.17960747  0.15295444  0.05600027
   0.82039253  0.84704558  0.94399971
   0.82039253  0.65295442  0.44399974
   0.17960747  0.34704558  0.55600029
   0.03985439  0.56081936  0.21018809
   0.96014559  0.43918064  0.78981189
   0.96014559  0.06081936  0.28981189
   0.03985439  0.93918064  0.71018811
   0.37803244  0.45219067  0.31244317
   0.62196759  0.54780933  0.68755686
   0.62196759  0.95219067  0.18755683
   0.37803244  0.04780933  0.81244314
   0.31629837  0.97624195  0.38011118
   0.68370163  0.02375805  0.61988882
   0.68370163  0.47624195  0.11988882
   0.31629837  0.52375805  0.88011118
Direct configuration=    21
   0.35995675  0.78007087  0.11915190
   0.64004322  0.21992913  0.88084811
   0.64004322  0.28007087  0.38084811
   0.35995675  0.71992913  0.61915189
   0.15685248  0.26714555  0.31877257
   0.84314751  0.73285445  0.68122746
   0.84314751  0.76714555  0.18122743
   0.15685248  0.23285445  0.81877254
   0.17960815  0.15283630  0.05600423
   0.82039185  0.84716371  0.94399575
   0.82039185  0.65283629  0.44399578
   0.17960815  0.34716371  0.55600425
   0.04000257  0.56096073  0.21030528
   0.95999741  0.43903927  0.78969470
   0.95999741  0.06096073  0.28969470
   0.04000257  0.93903927  0.71030530
   0.37807034  0.45222015  0.31238762
   0.62192969  0.54777985  0.68761241
   0.62192969  0.95222015  0.18761238
   0.37807034  0.04777985  0.81238759
   0.31626340  0.97634836  0.38013635
   0.68373660  0.02365164  0.61986365
   0.68373660  0.47634836  0.11986365
   0.31626340  0.52365164  0.88013635
Direct configuration=    22
   0.35994162  0.78011474  0.11910522
   0.64005835  0.21988526  0.88089479
   0.64005835  0.28011474  0.38089479
   0.35994162  0.71988526  0.61910521
   0.15679438  0.26715690  0.31872191
   0.84320560  0.73284310  0.68127812
   0.84320560  0.76715690  0.18127809
   0.15679438  0.23284310  0.81872188
   0.17957426  0.15274621  0.05606652
   0.82042574  0.84725380  0.94393346
   0.82042574  0.65274620  0.44393349
   0.17957426  0.34725380  0.55606654
   0.04004239  0.56120663  0.21034647
   0.95995759  0.43879337  0.78965351
   0.95995759  0.06120663  0.28965351
   0.04004239  0.93879337  0.71034649
   0.37807662  0.45221232  0.31237415
   0.62192341  0.54778768  0.68762588
   0.62192341  0.95221232  0.18762585
   0.37807662  0.04778768  0.81237412
   0.31617559  0.97643804  0.38013184
   0.68382441  0.02356196  0.61986816
   0.68382441  0.47643804  0.11986816
   0.31617559  0.52356196  0.88013184
Direct configuration=    23
   0.35992788  0.78015458  0.11906282
   0.64007209  0.21984542  0.88093719
   0.64007209  0.28015458  0.38093719
   0.35992788  0.71984542  0.61906281
   0.15674162  0.26716721  0.31867590
   0.84325837  0.73283279  0.68132413
   0.84325837  0.76716721  0.18132410
   0.15674162  0.23283279  0.81867587
   0.17954347  0.15266439  0.05612310
   0.82045653  0.84733563  0.94387688
   0.82045653  0.65266437  0.44387691
   0.17954347  0.34733563  0.55612312
   0.04007856  0.56142998  0.21038388
   0.95992142  0.43857002  0.78961610
   0.95992142  0.06142998  0.28961610
   0.04007856  0.93857002  0.71038390
   0.37808233  0.45220521  0.31236192
   0.62191769  0.54779479  0.68763811
   0.62191769  0.95220521  0.18763808
   0.37808233  0.04779479  0.81236189
   0.31609583  0.97651950  0.38012776
   0.68390417  0.02348050  0.61987224
   0.68390417  0.47651950  0.11987224
   0.31609583  0.52348050  0.88012776
Direct configuration=    24
   0.35992687  0.78019923  0.11903658
   0.64007310  0.21980077  0.88096343
   0.64007310  0.28019923  0.38096343
   0.35992687  0.71980077  0.61903657
   0.15674658  0.26721912  0.31868888
   0.84325341  0.73278088  0.68131115
   0.84325341  0.76721912  0.18131112
   0.15674658  0.23278088  0.81868885
   0.17948892  0.15264602  0.05611472
   0.82051108  0.84735400  0.94388526
   0.82051108  0.65264600  0.44388529
   0.17948892  0.34735400  0.55611474
   0.04012518  0.56164056  0.21039517
   0.95987480  0.43835944  0.78960482
   0.95987480  0.06164056  0.28960482
   0.04012518  0.93835944  0.71039518
   0.37806536  0.45219167  0.31236341
   0.62193467  0.54780833  0.68763662
   0.62193467  0.95219167  0.18763659
   0.37806536  0.04780833  0.81236338
   0.31601262  0.97657626  0.38012467
   0.68398738  0.02342374  0.61987533
   0.68398738  0.47657626  0.11987533
   0.31601262  0.52342374  0.88012467
Direct configuration=    25
   0.35992579  0.78024723  0.11900837
   0.64007418  0.21975277  0.88099164
   0.64007418  0.28024723  0.38099164
   0.35992579  0.71975277  0.61900836
   0.15675191  0.26727493  0.31870284
   0.84324808  0.73272507  0.68129719
   0.84324808  0.76727493  0.18129716
   0.15675191  0.23272507  0.81870281
   0.17943028  0.15262627  0.05610571
   0.82056972  0.84737374  0.94389426
   0.82056972  0.65262626  0.44389429
   0.17943028  0.34737374  0.55610574
   0.04017530  0.56186692  0.21040730
   0.95982468  0.43813308  0.78959268
   0.95982468  0.06186692  0.28959268
   0.04017530  0.93813308  0.71040732
   0.37804711  0.45217711  0.31236501
   0.62195292  0.54782289  0.68763502
   0.62195292  0.95217711  0.18763499
   0.37804711  0.04782289  0.81236498
   0.31592316  0.97663728  0.38012135
   0.68407684  0.02336272  0.61987865
   0.68407684  0.47663728  0.11987865
   0.31592316  0.52336272  0.88012135
Direct configuration=    26
   0.35992363  0.78034322  0.11895195
   0.64007634  0.21965678  0.88104806
   0.64007634  0.28034322  0.38104806
   0.35992363  0.71965678  0.61895194
   0.15676257  0.26738654  0.31873074
   0.84323742  0.73261346  0.68126929
   0.84323742  0.76738654  0.18126926
   0.15676257  0.23261346  0.81873071
   0.17931301  0.15258678  0.05608770
   0.82068699  0.84741324  0.94391228
   0.82068699  0.65258676  0.44391231
   0.17931301  0.34741324  0.55608772
   0.04027555  0.56231966  0.21043157
   0.95972444  0.43768034  0.78956842
   0.95972444  0.06231966  0.28956842
   0.04027555  0.93768034  0.71043158
   0.37801061  0.45214799  0.31236821
   0.62198942  0.54785201  0.68763182
   0.62198942  0.95214799  0.18763179
   0.37801061  0.04785201  0.81236818
   0.31574425  0.97675931  0.38011472
   0.68425575  0.02324069  0.61988528
   0.68425575  0.47675931  0.11988528
   0.31574425  0.52324069  0.88011472
Direct configuration=    27
   0.35992495  0.78028456  0.11898643
   0.64007502  0.21971544  0.88101358
   0.64007502  0.28028456  0.38101358
   0.35992495  0.71971544  0.61898642
   0.15675605  0.26731833  0.31871369
   0.84324393  0.73268167  0.68128634
   0.84324393  0.76731833  0.18128631
   0.15675605  0.23268167  0.81871366
   0.17938467  0.15261091  0.05609871
   0.82061533  0.84738910  0.94390127
   0.82061533  0.65261090  0.44390130
   0.17938467  0.34738910  0.55609873
   0.04021429  0.56204299  0.21041674
   0.95978569  0.43795701  0.78958325
   0.95978569  0.06204299  0.28958325
   0.04021429  0.93795701  0.71041675
   0.37803292  0.45216578  0.31236626
   0.62196711  0.54783422  0.68763377
   0.62196711  0.95216578  0.18763374
   0.37803292  0.04783422  0.81236623
   0.31585358  0.97668473  0.38011877
   0.68414642  0.02331527  0.61988123
   0.68414642  0.47668473  0.11988123
   0.31585358  0.52331527  0.88011877
Direct configuration=    28
   0.35992272  0.78033013  0.11896934
   0.64007725  0.21966987  0.88103066
   0.64007725  0.28033013  0.38103066
   0.35992272  0.71966987  0.61896934
   0.15670895  0.26743332  0.31872577
   0.84329103  0.73256668  0.68127426
   0.84329103  0.76743332  0.18127423
   0.15670895  0.23256668  0.81872574
   0.17933049  0.15262005  0.05607338
   0.82066951  0.84737996  0.94392660
   0.82066951  0.65262004  0.44392663
   0.17933049  0.34737996  0.55607340
   0.04028816  0.56221543  0.21042896
   0.95971182  0.43778457  0.78957103
   0.95971182  0.06221543  0.28957103
   0.04028816  0.93778457  0.71042897
   0.37803357  0.45217272  0.31237329
   0.62196645  0.54782728  0.68762674
   0.62196645  0.95217272  0.18762671
   0.37803357  0.04782728  0.81237326
   0.31578740  0.97670604  0.38012479
   0.68421260  0.02329396  0.61987521
   0.68421260  0.47670604  0.11987521
   0.31578740  0.52329396  0.88012479
Direct configuration=    29
   0.35991825  0.78042173  0.11893501
   0.64008172  0.21957827  0.88106500
   0.64008172  0.28042173  0.38106500
   0.35991825  0.71957827  0.61893500
   0.15661430  0.26766443  0.31875005
   0.84338569  0.73233557  0.68124998
   0.84338569  0.76766443  0.18124995
   0.15661430  0.23233557  0.81875002
   0.17922159  0.15263842  0.05602247
   0.82077841  0.84736159  0.94397751
   0.82077841  0.65263841  0.44397754
   0.17922159  0.34736159  0.55602249
   0.04043663  0.56256199  0.21045351
   0.95956335  0.43743801  0.78954648
   0.95956335  0.06256199  0.28954648
   0.04043663  0.93743801  0.71045352
   0.37803490  0.45218666  0.31238741
   0.62196513  0.54781334  0.68761262
   0.62196513  0.95218666  0.18761259
   0.37803490  0.04781334  0.81238738
   0.31565440  0.97674887  0.38013690
   0.68434560  0.02325113  0.61986310
   0.68434560  0.47674887  0.11986310
   0.31565440  0.52325113  0.88013690
Direct configuration=    30
   0.35990931  0.78060493  0.11886634
   0.64009066  0.21939507  0.88113366
   0.64009066  0.28060493  0.38113366
   0.35990931  0.71939507  0.61886634
   0.15642499  0.26812665  0.31879861
   0.84357500  0.73187335  0.68120142
   0.84357500  0.76812665  0.18120139
   0.15642499  0.23187335  0.81879858
   0.17900380  0.15267516  0.05592065
   0.82099620  0.84732486  0.94407933
   0.82099620  0.65267514  0.44407936
   0.17900380  0.34732486  0.55592067
   0.04073357  0.56325511  0.21050262
   0.95926641  0.43674489  0.78949737
   0.95926641  0.06325511  0.28949737
   0.04073357  0.93674489  0.71050263
   0.37803755  0.45221455  0.31241566
   0.62196248  0.54778545  0.68758437
   0.62196248  0.95221455  0.18758434
   0.37803755  0.04778545  0.81241563
   0.31538839  0.97683453  0.38016110
   0.68461161  0.02316547  0.61983890
   0.68461161  0.47683453  0.11983890
   0.31538839  0.52316547  0.88016110
Direct configuration=    31
   0.35991457  0.78049725  0.11890670
   0.64008540  0.21950275  0.88109330
   0.64008540  0.28049725  0.38109330
   0.35991457  0.71950275  0.61890670
   0.15653626  0.26785497  0.31877006
   0.84346372  0.73214503  0.68122997
   0.84346372  0.76785497  0.18122994
   0.15653626  0.23214503  0.81877003
   0.17913181  0.15265356  0.05598050
   0.82086819  0.84734645  0.94401948
   0.82086819  0.65265355  0.44401951
   0.17913181  0.34734645  0.55598052
   0.04055903  0.56284770  0.21047375
   0.95944095  0.43715230  0.78952623
   0.95944095  0.06284770  0.28952623
   0.04055903  0.93715230  0.71047377
   0.37803599  0.45219816  0.31239906
   0.62196404  0.54780184  0.68760097
   0.62196404  0.95219816  0.18760094
   0.37803599  0.04780184  0.81239903
   0.31554475  0.97678418  0.38014688
   0.68445525  0.02321582  0.61985312
   0.68445525  0.47678418  0.11985312
   0.31554475  0.52321582  0.88014688
Direct configuration=    32
   0.35990831  0.78054198  0.11890785
   0.64009166  0.21945802  0.88109216
   0.64009166  0.28054198  0.38109216
   0.35990831  0.71945802  0.61890784
   0.15649330  0.26799175  0.31872703
   0.84350669  0.73200825  0.68127300
   0.84350669  0.76799175  0.18127297
   0.15649330  0.23200825  0.81872700
   0.17906977  0.15265099  0.05603414
   0.82093023  0.84734902  0.94396584
   0.82093023  0.65265098  0.44396587
   0.17906977  0.34734902  0.55603416
   0.04070636  0.56300080  0.21049503
   0.95929362  0.43699920  0.78950496
   0.95929362  0.06300080  0.28950496
   0.04070636  0.93699920  0.71049504