  24  24   0   0
  0.1345672E+02  0.8099730E-09  0.5439130E-09  0.7498150E-09  0.5000000E-15
   1.0000000000000000E-004
  CAR 
 unknown system                          
     14.62681373    -70.09055996  301      0.93083831      1.00000000
    -70.091  0.0000E+00  0.0000E+00
    -69.808  0.0000E+00  0.0000E+00
    -69.526  0.0000E+00  0.0000E+00
    -69.243  0.0000E+00  0.0000E+00
    -68.961  0.0000E+00  0.0000E+00
    -68.679  0.0000E+00  0.0000E+00
    -68.396  0.0000E+00  0.0000E+00
    -68.114  0.0000E+00  0.0000E+00
    -67.831  0.0000E+00  0.0000E+00
    -67.549  0.0000E+00  0.0000E+00
    -67.267  0.0000E+00  0.0000E+00
    -66.984  0.0000E+00  0.0000E+00
    -66.702  0.0000E+00  0.0000E+00
    -66.419  0.0000E+00  0.0000E+00
    -66.137  0.0000E+00  0.8000E+01
    -65.855  0.0000E+00  0.8000E+01
    -65.572  0.0000E+00  0.8000E+01
    -65.290  0.0000E+00  0.8000E+01
    -65.008  0.0000E+00  0.8000E+01
    -64.725  0.0000E+00  0.8000E+01
    -64.443  0.0000E+00  0.8000E+01
    -64.160  0.0000E+00  0.8000E+01
    -63.878  0.0000E+00  0.8000E+01
    -63.596  0.0000E+00  0.8000E+01
    -63.313  0.0000E+00  0.8000E+01
    -63.031  0.0000E+00  0.8000E+01
    -62.748  0.0000E+00  0.8000E+01
    -62.466  0.0000E+00  0.8000E+01
    -62.184  0.0000E+00  0.8000E+01
    -61.901  0.0000E+00  0.8000E+01
    -61.619  0.0000E+00  0.8000E+01
    -61.336  0.0000E+00  0.8000E+01
    -61.054  0.0000E+00  0.8000E+01
    -60.772  0.0000E+00  0.8000E+01
    -60.489  0.0000E+00  0.8000E+01
    -60.207  0.0000E+00  0.8000E+01
    -59.924  0.0000E+00  0.8000E+01
    -59.642  0.0000E+00  0.8000E+01
    -59.360  0.0000E+00  0.8000E+01
    -59.077  0.0000E+00  0.8000E+01
    -58.795  0.0000E+00  0.8000E+01
    -58.513  0.0000E+00  0.8000E+01
    -58.230  0.0000E+00  0.8000E+01
    -57.948  0.0000E+00  0.8000E+01
    -57.665  0.0000E+00  0.8000E+01
    -57.383  0.0000E+00  0.8000E+01
    -57.101  0.0000E+00  0.8000E+01
    -56.818  0.0000E+00  0.8000E+01
    -56.536  0.0000E+00  0.8000E+01
    -56.253  0.0000E+00  0.8000E+01
    -55.971  0.0000E+00  0.8000E+01
    -55.689  0.0000E+00  0.8000E+01
    -55.406  0.0000E+00  0.8000E+01
    -55.124  0.0000E+00  0.8000E+01
    -54.841  0.0000E+00  0.8000E+01
    -54.559  0.0000E+00  0.8000E+01
    -54.277  0.0000E+00  0.8000E+01
    -53.994  0.0000E+00  0.8000E+01
    -53.712  0.0000E+00  0.8000E+01
    -53.429  0.0000E+00  0.8000E+01
    -53.147  0.0000E+00  0.8000E+01
    -52.865  0.0000E+00  0.8000E+01
    -52.582  0.0000E+00  0.8000E+01
    -52.300  0.0000E+00  0.8000E+01
    -52.018  0.0000E+00  0.8000E+01
    -51.735  0.0000E+00  0.8000E+01
    -51.453  0.0000E+00  0.8000E+01
    -51.170  0.0000E+00  0.8000E+01
    -50.888  0.0000E+00  0.8000E+01
    -50.606  0.0000E+00  0.8000E+01
    -50.323  0.0000E+00  0.8000E+01
    -50.041  0.0000E+00  0.8000E+01
    -49.758  0.0000E+00  0.8000E+01
    -49.476  0.0000E+00  0.8000E+01
    -49.194  0.0000E+00  0.8000E+01
    -48.911  0.0000E+00  0.8000E+01
    -48.629  0.0000E+00  0.8000E+01
    -48.346  0.0000E+00  0.8000E+01
    -48.064  0.0000E+00  0.8000E+01
    -47.782  0.0000E+00  0.8000E+01
    -47.499  0.0000E+00  0.8000E+01
    -47.217  0.0000E+00  0.1600E+02
    -46.934  0.0000E+00  0.1600E+02
    -46.652  0.0000E+00  0.1600E+02
    -46.370  0.0000E+00  0.1600E+02
    -46.087  0.0000E+00  0.1600E+02
    -45.805  0.0000E+00  0.1600E+02
    -45.523  0.0000E+00  0.1600E+02
    -45.240  0.0000E+00  0.1600E+02
    -44.958  0.0000E+00  0.1600E+02
    -44.675  0.0000E+00  0.1600E+02
    -44.393  0.0000E+00  0.1600E+02
    -44.111  0.0000E+00  0.1600E+02
    -43.828  0.0000E+00  0.1600E+02
    -43.546  0.0000E+00  0.1600E+02
    -43.263  0.0000E+00  0.1600E+02
    -42.981  0.0000E+00  0.1600E+02
    -42.699  0.0000E+00  0.1600E+02
    -42.416  0.0000E+00  0.1600E+02
    -42.134  0.0000E+00  0.1600E+02
    -41.851  0.0000E+00  0.1600E+02
    -41.569  0.0000E+00  0.1600E+02
    -41.287  0.0000E+00  0.1600E+02
    -41.004  0.0000E+00  0.1600E+02
    -40.722  0.0000E+00  0.1600E+02
    -40.439  0.0000E+00  0.1600E+02
    -40.157  0.0000E+00  0.1600E+02
    -39.875  0.0000E+00  0.1600E+02
    -39.592  0.0000E+00  0.1600E+02
    -39.310  0.0000E+00  0.1600E+02
    -39.028  0.0000E+00  0.1600E+02
    -38.745  0.0000E+00  0.1600E+02
    -38.463  0.0000E+00  0.1600E+02
    -38.180  0.0000E+00  0.1600E+02
    -37.898  0.0000E+00  0.1600E+02
    -37.616  0.0000E+00  0.1600E+02
    -37.333  0.0000E+00  0.1600E+02
    -37.051  0.0000E+00  0.1600E+02
    -36.768  0.0000E+00  0.1600E+02
    -36.486  0.0000E+00  0.1600E+02
    -36.204  0.0000E+00  0.1600E+02
    -35.921  0.0000E+00  0.1600E+02
    -35.639  0.0000E+00  0.1600E+02
    -35.356  0.0000E+00  0.1600E+02
    -35.074  0.0000E+00  0.1600E+02
    -34.792  0.0000E+00  0.1600E+02
    -34.509  0.0000E+00  0.1600E+02
    -34.227  0.0000E+00  0.1600E+02
    -33.944  0.0000E+00  0.1600E+02
    -33.662  0.0000E+00  0.1600E+02
    -33.380  0.0000E+00  0.1600E+02
    -33.097  0.0000E+00  0.1600E+02
    -32.815  0.2770E+02  0.2382E+02
    -32.533  0.0000E+00  0.4000E+02
    -32.250  0.0000E+00  0.4000E+02
    -31.968  0.0000E+00  0.4000E+02
    -31.685  0.0000E+00  0.4000E+02
    -31.403  0.0000E+00  0.4000E+02
    -31.121  0.0000E+00  0.4000E+02
    -30.838  0.0000E+00  0.4000E+02
    -30.556  0.0000E+00  0.4000E+02
    -30.273  0.0000E+00  0.4000E+02
    -29.991  0.0000E+00  0.4000E+02
    -29.709  0.0000E+00  0.4000E+02
    -29.426  0.0000E+00  0.4000E+02
    -29.144  0.0000E+00  0.4000E+02
    -28.861  0.0000E+00  0.4000E+02
    -28.579  0.0000E+00  0.4000E+02
    -28.297  0.0000E+00  0.4000E+02
    -28.014  0.0000E+00  0.4000E+02
    -27.732  0.0000E+00  0.4000E+02
    -27.449  0.0000E+00  0.4000E+02
    -27.167  0.0000E+00  0.4000E+02
    -26.885  0.0000E+00  0.4000E+02
    -26.602  0.0000E+00  0.4000E+02
    -26.320  0.0000E+00  0.4000E+02
    -26.038  0.0000E+00  0.4000E+02
    -25.755  0.0000E+00  0.4000E+02
    -25.473  0.0000E+00  0.4000E+02
    -25.190  0.0000E+00  0.4000E+02
    -24.908  0.0000E+00  0.4000E+02
    -24.626  0.0000E+00  0.4000E+02
    -24.343  0.0000E+00  0.4000E+02
    -24.061  0.0000E+00  0.4000E+02
    -23.778  0.0000E+00  0.4000E+02
    -23.496  0.0000E+00  0.4000E+02
    -23.214  0.0000E+00  0.4000E+02
    -22.931  0.0000E+00  0.4000E+02
    -22.649  0.0000E+00  0.4000E+02
    -22.366  0.0000E+00  0.4000E+02
    -22.084  0.0000E+00  0.4000E+02
    -21.802  0.0000E+00  0.4000E+02
    -21.519  0.0000E+00  0.4000E+02
    -21.237  0.0000E+00  0.4000E+02
    -20.954  0.0000E+00  0.4000E+02
    -20.672  0.0000E+00  0.4000E+02
    -20.390  0.1459E+02  0.4412E+02
    -20.107  0.1079E+02  0.5580E+02
    -19.825  0.0000E+00  0.5600E+02
    -19.543  0.0000E+00  0.5600E+02
    -19.260  0.3649E+02  0.6630E+02
    -18.978  0.0000E+00  0.8000E+02
    -18.695  0.0000E+00  0.8000E+02
    -18.413  0.0000E+00  0.8000E+02
    -18.131  0.0000E+00  0.8000E+02
    -17.848  0.0000E+00  0.8000E+02
    -17.566  0.0000E+00  0.8000E+02
    -17.283  0.0000E+00  0.8000E+02
    -17.001  0.0000E+00  0.8000E+02
    -16.719  0.0000E+00  0.8000E+02
    -16.436  0.0000E+00  0.8000E+02
    -16.154  0.0000E+00  0.8000E+02
    -15.871  0.0000E+00  0.8000E+02
    -15.589  0.2359E+01  0.8100E+02
    -15.307  0.4368E+01  0.8423E+02
    -15.024  0.4722E+01  0.9200E+02
    -14.742  0.0000E+00  0.9200E+02
    -14.459  0.0000E+00  0.9400E+02
    -14.177  0.1180E+01  0.9600E+02
    -13.895  0.0000E+00  0.9600E+02
    -13.612  0.0000E+00  0.9600E+02
    -13.330  0.0000E+00  0.9600E+02
    -13.048  0.0000E+00  0.9600E+02
    -12.765  0.0000E+00  0.9600E+02
    -12.483  0.0000E+00  0.9600E+02
    -12.200  0.0000E+00  0.9600E+02
    -11.918  0.0000E+00  0.9600E+02
    -11.636  0.0000E+00  0.9600E+02
    -11.353  0.0000E+00  0.9600E+02
    -11.071  0.0000E+00  0.9600E+02
    -10.788  0.0000E+00  0.9600E+02
    -10.506  0.0000E+00  0.9600E+02
    -10.224  0.0000E+00  0.9600E+02
     -9.941  0.0000E+00  0.9600E+02
     -9.659  0.0000E+00  0.9600E+02
     -9.376  0.0000E+00  0.9600E+02
     -9.094  0.0000E+00  0.9600E+02
     -8.812  0.0000E+00  0.9600E+02
     -8.529  0.0000E+00  0.9600E+02
     -8.247  0.0000E+00  0.9600E+02
     -7.964  0.0000E+00  0.9600E+02
     -7.682  0.0000E+00  0.9600E+02
     -7.400  0.0000E+00  0.9600E+02
     -7.117  0.0000E+00  0.9600E+02
     -6.835  0.0000E+00  0.9600E+02
     -6.553  0.0000E+00  0.9600E+02
     -6.270  0.0000E+00  0.9600E+02
     -5.988  0.0000E+00  0.9600E+02
     -5.705  0.0000E+00  0.9600E+02
     -5.423  0.0000E+00  0.9600E+02
     -5.141  0.0000E+00  0.9600E+02
     -4.858  0.0000E+00  0.9600E+02
     -4.576  0.0000E+00  0.9600E+02
     -4.293  0.0000E+00  0.9600E+02
     -4.011  0.0000E+00  0.9600E+02
     -3.729  0.1566E+02  0.1010E+03
     -3.446  0.0000E+00  0.1060E+03
     -3.164  0.5365E+01  0.1077E+03
     -2.881  0.4087E+01  0.1129E+03
     -2.599  0.7279E+01  0.1200E+03
     -2.317  0.6642E+01  0.1271E+03
     -2.034  0.5155E+01  0.1330E+03
     -1.752  0.5897E+00  0.1380E+03
     -1.469  0.9063E+01  0.1427E+03
     -1.187  0.6625E+01  0.1512E+03
     -0.905  0.6417E+01  0.1601E+03
     -0.622  0.5161E+01  0.1675E+03
     -0.340  0.1901E+01  0.1705E+03
     -0.058  0.4001E+01  0.1739E+03
      0.225  0.3405E+01  0.1800E+03
      0.507  0.2700E+01  0.1851E+03
      0.790  0.1178E+01  0.1883E+03
      1.072  0.0000E+00  0.1920E+03
      1.354  0.0000E+00  0.1920E+03
      1.637  0.0000E+00  0.1920E+03
      1.919  0.0000E+00  0.1920E+03
      2.202  0.0000E+00  0.1920E+03
      2.484  0.0000E+00  0.1920E+03
      2.766  0.0000E+00  0.1920E+03
      3.049  0.0000E+00  0.1920E+03
      3.331  0.0000E+00  0.1920E+03
      3.614  0.0000E+00  0.1920E+03
      3.896  0.0000E+00  0.1920E+03
      4.178  0.0000E+00  0.1920E+03
      4.461  0.0000E+00  0.1920E+03
      4.743  0.0000E+00  0.1920E+03
      5.026  0.5899E+01  0.1947E+03
      5.308  0.2528E+01  0.1964E+03
      5.590  0.7168E-10  0.1987E+03
      5.873  0.2093E+01  0.1999E+03
      6.155  0.3462E+01  0.2028E+03
      6.437  0.1415E+01  0.2064E+03
      6.720  0.2237E+01  0.2083E+03
      7.002  0.1778E+01  0.2110E+03
      7.285  0.2855E+01  0.2140E+03
      7.567  0.2951E+01  0.2162E+03
      7.849  0.5902E+00  0.2166E+03
      8.132  0.5902E+00  0.2169E+03
      8.414  0.5080E+00  0.2173E+03
      8.697  0.8904E+00  0.2181E+03
      8.979  0.6278E+00  0.2190E+03
      9.261  0.2905E+01  0.2202E+03
      9.544  0.2068E+01  0.2227E+03
      9.826  0.2324E+01  0.2247E+03
     10.109  0.1781E+01  0.2266E+03
     10.391  0.2279E+01  0.2286E+03
     10.673  0.5874E+00  0.2298E+03
     10.956  0.0000E+00  0.2300E+03
     11.238  0.0000E+00  0.2300E+03
     11.521  0.0000E+00  0.2300E+03
     11.803  0.0000E+00  0.2300E+03
     12.085  0.0000E+00  0.2300E+03
     12.368  0.0000E+00  0.2300E+03
     12.650  0.0000E+00  0.2300E+03
     12.932  0.0000E+00  0.2300E+03
     13.215  0.0000E+00  0.2300E+03
     13.497  0.0000E+00  0.2300E+03
     13.780  0.0000E+00  0.2300E+03
     14.062  0.0000E+00  0.2300E+03
     14.344  0.0000E+00  0.2300E+03
     14.627  0.0000E+00  0.2300E+03
