 vasp.6.2.1 16May21 (build Jan  3 2022 11:18:50) complex                         
 executed on             LinuxGNU date 2023.01.27  10:53:24
 running    1 mpi-ranks, with    1 threads/rank
 distrk:  each k-point on    1 cores,    1 groups
 distr:  one band on NCORE=   1 cores,    1 groups


--------------------------------------------------------------------------------------------------------


 INCAR:
   ISTART = 0
   ISMEAR = 0
   SIGMA = 0.01
   ENCUT = 550
   PREC = N
   LREAL = A
   EDIFF = 1e-8
   LCHIMAG = .TRUE.	
   DQ = 0.003
   ICHIBARE = 1
   LEFG = .TRUE.
   QUAD_EFG = 104 -320 -25.58 -94.2

 POTCAR:    PAW_PBE Na_sv_GW 11May2015            
 POTCAR:    PAW_PBE Ta_sv_GW 23Mar2010            
 POTCAR:    PAW_PBE O_s_GW 10Jan2007              
 POTCAR:    PAW_PBE F_GW 21Dec2007                
 POTCAR:    PAW_PBE Na_sv_GW 11May2015            
   SHA256 =  7aca660ab3bfaee19d1ee7a682571aefe7e2df9c5a478cbc4ca048f133583603 Na_sv_GW/POTCAR       
   COPYR  = (c) Copyright 11May2015 Georg Kresse                                                    
   COPYR  = This file is part of the software VASP. Any use, copying, and all other rights are regul
   COPYR  = If you do not have a valid VASP license, you may not use, copy or distribute this file. 
   VRHFIN =Na: 2s2p3s                                                                               
   LEXCH  = PE                                                                                      
   EATOM  =  1305.7875 eV,   95.9727 Ry                                                             
                                                                                                    
   TITEL  = PAW_PBE Na_sv_GW 11May2015                                                              
   LULTRA =        F    use ultrasoft PP ?                                                          
   IUNSCR =        1    unscreen: 0-lin 1-nonlin 2-no                                               
   RPACOR =    1.800    partial core radius                                                         
   POMASS =   22.990; ZVAL   =    9.000    mass and valenz                                          
   RCORE  =    2.200    outmost cutoff radius                                                       
   RWIGS  =    2.200; RWIGS  =    1.164    wigner-seitz radius (au A)                               
   ENMAX  =  372.853; ENMIN  =  279.639 eV                                                          
   RCLOC  =    1.108    cutoff for local pot                                                        
   LCOR   =        T    correct aug charges                                                         
   LPAW   =        T    paw PP                                                                      
   EAUG   =  536.357                                                                                
   RMAX   =    2.245    core radius for proj-oper                                                   
   RAUG   =    1.300    factor for augmentation sphere                                              
   RDEP   =    2.259    radius for radial grids                                                     
   RDEPT  =    1.800    core radius for aug-charge                                                  
                                                                                                    
   Atomic configuration                                                                             
    6 entries                                                                                       
     n  l   j            E        occ.                                                              
     1  0  0.50     -1035.8704   2.0000                                                             
     2  0  0.50       -58.9175   2.0000                                                             
     2  1  1.50       -30.8193   6.0000                                                             
     3  1  1.50        -1.4789   1.0000                                                             
     3  2  1.50        -0.7184   0.0000                                                             
     4  3  2.50        -1.3606   0.0000                                                             
   Description                                                                                      
     l       E           TYP  RCUT    TYP  RCUT                                                     
     0    -58.9175350     23  1.400                                                                 
     0    108.8466080     23  1.400                                                                 
     1    -30.8192593     23  1.650                                                                 
     1     -1.4788505     23  2.200                                                                 
     1     81.6349560     23  2.200                                                                 
     2     20.4087390     23  2.200                                                                 
     2     54.4233040     23  2.200                                                                 
  local pseudopotential read in
  partial core-charges read in
  partial kinetic energy density read in
  kinetic energy density of atom read in
  atomic valenz-charges read in
  non local Contribution for L=           0  read in
    real space projection operators read in
  non local Contribution for L=           0  read in
    real space projection operators read in
  non local Contribution for L=           1  read in
    real space projection operators read in
  non local Contribution for L=           1  read in
    real space projection operators read in
  non local Contribution for L=           1  read in
    real space projection operators read in
  non local Contribution for L=           2  read in
    real space projection operators read in
  non local Contribution for L=           2  read in
    real space projection operators read in
    PAW grid and wavefunctions read in

   number of l-projection  operators is LMAX  =           7
   number of lm-projection operators is LMMAX =          21

 POTCAR:    PAW_PBE Ta_sv_GW 23Mar2010            
   SHA256 =  f9dffcd32a5321ea182ca3bf88f89b0d05d2b9340811fad1b6a642133ccdfc37 Ta_sv_GW/POTCAR       
   COPYR  = (c) Copyright 23Mar2010 Georg Kresse                                                    
   COPYR  = This file is part of the software VASP. Any use, copying, and all other rights are regul
   COPYR  = If you do not have a valid VASP license, you may not use, copy or distribute this file. 
   VRHFIN =Ta: 5p6s6d                                                                               
   LEXCH  = PE                                                                                      
   EATOM  =  1591.0418 eV,  116.9383 Ry                                                             
                                                                                                    
   TITEL  = PAW_PBE Ta_sv_GW 23Mar2010                                                              
   LULTRA =        F    use ultrasoft PP ?                                                          
   IUNSCR =        1    unscreen: 0-lin 1-nonlin 2-no                                               
   RPACOR =    1.500    partial core radius                                                         
   POMASS =  180.948; ZVAL   =   13.000    mass and valenz                                          
   RCORE  =    2.500    outmost cutoff radius                                                       
   RWIGS  =    2.600; RWIGS  =    1.376    wigner-seitz radius (au A)                               
   ENMAX  =  286.008; ENMIN  =  214.506 eV                                                          
   RCLOC  =    1.601    cutoff for local pot                                                        
   LCOR   =        T    correct aug charges                                                         
   LPAW   =        T    paw PP                                                                      
   EAUG   =  718.287                                                                                
   DEXC   =    0.000                                                                                
   RMAX   =    2.551    core radius for proj-oper                                                   
   RAUG   =    1.300    factor for augmentation sphere                                              
   RDEP   =    2.526    radius for radial grids                                                     
   RDEPT  =    1.943    core radius for aug-charge                                                  
                                                                                                    
   Atomic configuration                                                                             
   14 entries                                                                                       
     n  l   j            E        occ.                                                              
     1  0  0.50    -67340.1329   2.0000                                                             
     2  0  0.50    -11565.7071   2.0000                                                             
     2  1  1.50    -10132.8906   6.0000                                                             
     3  0  0.50     -2647.3399   2.0000                                                             
     3  1  1.50     -2221.3791   6.0000                                                             
     3  2  2.50     -1725.0844  10.0000                                                             
     4  0  0.50      -537.4682   2.0000                                                             
     4  1  1.50      -397.7815   6.0000                                                             
     4  2  2.50      -219.1567  10.0000                                                             
     4  3  3.50       -21.7939  14.0000                                                             
     5  0  0.50       -70.0410   2.0000                                                             
     5  1  1.50       -36.6715   6.0000                                                             
     5  2  2.50        -2.0002   5.0000                                                             
     5  3  2.50        -1.3606   0.0000                                                             
   Description                                                                                      
     l       E           TYP  RCUT    TYP  RCUT                                                     
     0    -70.0409813     23  1.500                                                                 
     0    -71.4015639     23  1.500                                                                 
     0    108.8466080     23  1.500                                                                 
     1    -36.6714834     23  1.900                                                                 
     1     68.0291300     23  1.900                                                                 
     2     -2.0001941     23  2.200                                                                 
     2      1.0823759     23  2.200                                                                 
     3      6.8029130     23  2.500                                                                 
  local pseudopotential read in
  partial core-charges read in
  partial kinetic energy density read in
  kinetic energy density of atom read in
  atomic valenz-charges read in
  non local Contribution for L=           0  read in
    real space projection operators read in
  non local Contribution for L=           0  read in
    real space projection operators read in
  non local Contribution for L=           0  read in
    real space projection operators read in
  non local Contribution for L=           1  read in
    real space projection operators read in
  non local Contribution for L=           1  read in
    real space projection operators read in
  non local Contribution for L=           2  read in
    real space projection operators read in
  non local Contribution for L=           2  read in
    real space projection operators read in
  non local Contribution for L=           3  read in
    real space projection operators read in
    PAW grid and wavefunctions read in

   number of l-projection  operators is LMAX  =           8
   number of lm-projection operators is LMMAX =          26

 POTCAR:    PAW_PBE O_s_GW 10Jan2007              
   SHA256 =  8479399bb3502b2838d2b23234b8597ed1f898a5a7f592e6c46d7b1ca5096bfd O_s_GW/POTCAR         
   COPYR  = (c) Copyright 10Jan2007 Georg Kresse                                                    
   COPYR  = This file is part of the software VASP. Any use, copying, and all other rights are regul
   COPYR  = If you do not have a valid VASP license, you may not use, copy or distribute this file. 
   VRHFIN =O: s2p4                                                                                  
   LEXCH  = PE                                                                                      
   EATOM  =   432.3788 eV,   31.7789 Ry                                                             
                                                                                                    
   TITEL  = PAW_PBE O_s_GW 10Jan2007                                                                
   LULTRA =        F    use ultrasoft PP ?                                                          
   IUNSCR =        0    unscreen: 0-lin 1-nonlin 2-no                                               
   RPACOR =    0.000    partial core radius                                                         
   POMASS =   16.000; ZVAL   =    6.000    mass and valenz                                          
   RCORE  =    1.700    outmost cutoff radius                                                       
   RWIGS  =    1.800; RWIGS  =    0.953    wigner-seitz radius (au A)                               
   ENMAX  =  334.664; ENMIN  =  250.998 eV                                                          
   ICORE  =        2    local potential                                                             
   LCOR   =        T    correct aug charges                                                         
   LPAW   =        T    paw PP                                                                      
   EAUG   =  468.659                                                                                
   DEXC   =    0.000                                                                                
   RMAX   =    1.737    core radius for proj-oper                                                   
   RAUG   =    1.300    factor for augmentation sphere                                              
   RDEP   =    1.761    radius for radial grids                                                     
   RDEPT  =    1.463    core radius for aug-charge                                                  
                                                                                                    
   Atomic configuration                                                                             
    4 entries                                                                                       
     n  l   j            E        occ.                                                              
     1  0  0.50      -514.6923   2.0000                                                             
     2  0  0.50       -23.9615   2.0000                                                             
     2  1  0.50        -9.0305   4.0000                                                             
     3  2  1.50        -9.5241   0.0000                                                             
   Description                                                                                      
     l       E           TYP  RCUT    TYP  RCUT                                                     
     0    -23.9615316     23  1.400                                                                 
     0     95.2407820     23  1.400                                                                 
     1     -9.0304908     23  1.700                                                                 
     1    -20.4087390     23  1.700                                                                 
     1    108.8466080     23  1.700                                                                 
     2      6.8029130      7  1.500                                                                 
  local pseudopotential read in
  kinetic energy density of atom read in
  atomic valenz-charges read in
  non local Contribution for L=           0  read in
    real space projection operators read in
  non local Contribution for L=           0  read in
    real space projection operators read in
  non local Contribution for L=           1  read in
    real space projection operators read in
  non local Contribution for L=           1  read in
    real space projection operators read in
  non local Contribution for L=           1  read in
    real space projection operators read in
    PAW grid and wavefunctions read in

   number of l-projection  operators is LMAX  =           5
   number of lm-projection operators is LMMAX =          11

 POTCAR:    PAW_PBE F_GW 21Dec2007                
   SHA256 =  a4be5be7c2e94ecbdd74e103f102d884b83cc3f3bf5f2c60c72fa35846851376 F_GW/POTCAR           
   COPYR  = (c) Copyright 21Dec2007 Georg Kresse                                                    
   COPYR  = This file is part of the software VASP. Any use, copying, and all other rights are regul
   COPYR  = If you do not have a valid VASP license, you may not use, copy or distribute this file. 
   VRHFIN =F: s2p5                                                                                  
   LEXCH  = PE                                                                                      
   EATOM  =   659.6475 eV,   48.4827 Ry                                                             
                                                                                                    
   TITEL  = PAW_PBE F_GW 21Dec2007                                                                  
   LULTRA =        F    use ultrasoft PP ?                                                          
   IUNSCR =        0    unscreen: 0-lin 1-nonlin 2-no                                               
   RPACOR =    0.000    partial core radius                                                         
   POMASS =   18.998; ZVAL   =    7.000    mass and valenz                                          
   RCORE  =    1.400    outmost cutoff radius                                                       
   RWIGS  =    1.500; RWIGS  =    0.794    wigner-seitz radius (au A)                               
   ENMAX  =  487.698; ENMIN  =  365.773 eV                                                          
   ICORE  =        2    local potential                                                             
   LCOR   =        T    correct aug charges                                                         
   LPAW   =        T    paw PP                                                                      
   EAUG   =  697.405                                                                                
   DEXC   =    0.000                                                                                
   RMAX   =    1.435    core radius for proj-oper                                                   
   RAUG   =    1.300    factor for augmentation sphere                                              
   RDEP   =    1.444    radius for radial grids                                                     
   RDEPT  =    1.218    core radius for aug-charge                                                  
                                                                                                    
   Atomic configuration                                                                             
    4 entries                                                                                       
     n  l   j            E        occ.                                                              
     1  0  0.50      -663.3661   2.0000                                                             
     2  0  0.50       -29.8995   2.0000                                                             
     2  1  0.50       -11.1114   5.0000                                                             
     3  2  1.50       -12.2452   0.0000                                                             
   Description                                                                                      
     l       E           TYP  RCUT    TYP  RCUT                                                     
     0    -29.8995019     23  1.100                                                                 
     0     -9.5240782     23  1.100                                                                 
     1    -11.1113914     23  1.400                                                                 
     1      1.3605826     23  1.400                                                                 
     2    -12.2452434     23  1.400                                                                 
  local pseudopotential read in
  kinetic energy density of atom read in
  atomic valenz-charges read in
  non local Contribution for L=           0  read in
    real space projection operators read in
  non local Contribution for L=           0  read in
    real space projection operators read in
  non local Contribution for L=           1  read in
    real space projection operators read in
  non local Contribution for L=           1  read in
    real space projection operators read in
    PAW grid and wavefunctions read in

   number of l-projection  operators is LMAX  =           4
   number of lm-projection operators is LMMAX =           8

 Optimization of the real space projectors (new method)

 maximal supplied QI-value         = 17.01
 optimisation between [QCUT,QGAM] = [ 11.91, 23.98] = [ 39.69,161.04] Ry 
 Optimized for a Real-space Cutoff    1.41 Angstroem

   l    n(q)    QCUT    max X(q) W(low)/X(q) W(high)/X(q)  e(spline) 
   0     10    11.905     3.417    0.52E-05    0.14E-05    0.21E-07
   0     10    11.905     3.114    0.22E-04    0.17E-05    0.22E-06
   1     10    11.905     5.429    0.19E-03    0.12E-03    0.89E-06
   1     10    11.905    22.312    0.14E-03    0.89E-04    0.45E-06
   1     10    11.905     3.323    0.31E-03    0.19E-03    0.13E-05
   2      9    11.905    12.030    0.19E-03    0.32E-04    0.24E-06
   2      9    11.905     8.156    0.21E-03    0.33E-04    0.24E-06
 Optimization of the real space projectors (new method)

 maximal supplied QI-value         = 15.12
 optimisation between [QCUT,QGAM] = [ 11.94, 23.89] = [ 39.94,159.77] Ry 
 Optimized for a Real-space Cutoff    1.45 Angstroem

   l    n(q)    QCUT    max X(q) W(low)/X(q) W(high)/X(q)  e(spline) 
   0     10    11.943   378.168    0.29E-04    0.59E-04    0.12E-05
   0     10    11.943   400.714    0.29E-04    0.59E-04    0.12E-05
   0     10    11.943     5.006    0.16E-04    0.41E-04    0.10E-05
   1     10    11.943     2.647    0.35E-05    0.45E-05    0.43E-07
   1     10    11.943     2.272    0.31E-04    0.27E-04    0.15E-06
   2      9    11.943    42.263    0.32E-03    0.47E-04    0.58E-06
   2      9    11.943    33.287    0.32E-03    0.44E-04    0.57E-06
   3      9    11.943     3.457    0.49E-03    0.55E-03    0.27E-06
 Optimization of the real space projectors (new method)

 maximal supplied QI-value         = 22.11
 optimisation between [QCUT,QGAM] = [ 11.94, 23.88] = [ 39.92,159.67] Ry 
 Optimized for a Real-space Cutoff    1.45 Angstroem

   l    n(q)    QCUT    max X(q) W(low)/X(q) W(high)/X(q)  e(spline) 
   0     10    11.939     5.088    0.25E-04    0.28E-06    0.17E-06
   0     10    11.939     1.664    0.52E-04    0.46E-05    0.54E-06
   1     10    11.939     8.077    0.27E-03    0.19E-03    0.13E-05
   1     10    11.939     5.951    0.49E-03    0.34E-03    0.25E-05
   1     10    11.939     3.597    0.20E-03    0.15E-03    0.13E-05
 Optimization of the real space projectors (new method)

 maximal supplied QI-value         = 26.83
 optimisation between [QCUT,QGAM] = [ 11.81, 23.88] = [ 39.04,159.72] Ry 
 Optimized for a Real-space Cutoff    1.11 Angstroem

   l    n(q)    QCUT    max X(q) W(low)/X(q) W(high)/X(q)  e(spline) 
   0      8    11.807    15.805    0.41E-03    0.77E-03    0.26E-06
   0      8    11.807    12.410    0.41E-03    0.76E-03    0.26E-06
   1      7    11.807     9.077    0.16E-03    0.46E-03    0.19E-06
   1      7    11.807     8.229    0.14E-03    0.43E-03    0.19E-06
  PAW_PBE Na_sv_GW 11May2015            :
 energy of atom  1       EATOM=-1305.7875
 kinetic energy error for atom=    0.0318 (will be added to EATOM!!)
  PAW_PBE Ta_sv_GW 23Mar2010            :
 energy of atom  2       EATOM=-1591.0418
 kinetic energy error for atom=    0.0133 (will be added to EATOM!!)
  PAW_PBE O_s_GW 10Jan2007              :
 energy of atom  3       EATOM= -432.3788
 kinetic energy error for atom=    0.0100 (will be added to EATOM!!)
  PAW_PBE F_GW 21Dec2007                :
 energy of atom  4       EATOM= -659.6475
 kinetic energy error for atom=    0.0458 (will be added to EATOM!!)


 POSCAR: Sodium difluorodioxoniobate
  positions in direct lattice
  velocities in cartesian coordinates
  No initial velocities read in
 exchange correlation table for  LEXCH =        8
   RHO(1)=    0.500       N(1)  =     2000
   RHO(2)=  100.500       N(2)  =     4000



--------------------------------------------------------------------------------------------------------


 ion  position               nearest neighbor table
   1  0.367  0.790  0.110-  24 2.25  19 2.27  17 2.31   9 2.47
   2  0.633  0.210  0.890-  23 2.25  20 2.27  18 2.31  10 2.47
   3  0.633  0.290  0.390-  22 2.25  17 2.27  19 2.31  11 2.47
   4  0.367  0.710  0.610-  21 2.25  18 2.27  20 2.31  12 2.47
   5  0.159  0.263  0.298-  15 1.92  13 1.93  12 1.94   9 1.97  21 2.02  17 2.05
   6  0.841  0.737  0.702-  16 1.92  14 1.93  11 1.94  10 1.97  22 2.02  18 2.05
   7  0.841  0.763  0.202-  13 1.92  15 1.93  10 1.94  11 1.97  23 2.02  19 2.05
   8  0.159  0.237  0.798-  14 1.92  16 1.93   9 1.94  12 1.97  24 2.02  20 2.05
   9  0.187  0.159  0.055-   8 1.94   5 1.97   1 2.47
  10  0.813  0.841  0.945-   7 1.94   6 1.97   2 2.47
  11  0.813  0.659  0.445-   6 1.94   7 1.97   3 2.47
  12  0.187  0.341  0.555-   5 1.94   8 1.97   4 2.47
  13  0.034  0.556  0.211-   7 1.92   5 1.93
  14  0.966  0.444  0.789-   8 1.92   6 1.93
  15  0.966  0.056  0.289-   5 1.92   7 1.93
  16  0.034  0.944  0.711-   6 1.92   8 1.93
  17  0.374  0.468  0.313-   5 2.05   3 2.27   1 2.31
  18  0.626  0.532  0.687-   6 2.05   4 2.27   2 2.31
  19  0.626  0.968  0.187-   7 2.05   1 2.27   3 2.31
  20  0.374  0.032  0.813-   8 2.05   2 2.27   4 2.31
  21  0.323  0.984  0.379-   5 2.02   4 2.25
  22  0.677  0.016  0.621-   6 2.02   3 2.25
  23  0.677  0.484  0.121-   7 2.02   2 2.25
  24  0.323  0.516  0.879-   8 2.02   1 2.25

  LATTYP: Found a simple monoclinic cell.
 ALAT       =     7.4981498718
 B/A-ratio  =     0.7253962541
 C/A-ratio  =     1.0802304137
 COS(beta)  =    -0.2101015522
  
  Lattice vectors:
  
 A1 = (  -1.5753729267,   0.0000000000,   7.3307879278)
 A2 = (   0.0000000000,  -5.4391298294,   0.0000000000)
 A3 = (   8.0997295380,   0.0000000000,   0.0000000000)


Analysis of symmetry for initial positions (statically):
=====================================================================
 Subroutine PRICEL returns:
 Original cell was already a primitive cell.
 

 Routine SETGRP: Setting up the symmetry group for a 
 simple monoclinic supercell.


 Subroutine GETGRP returns: Found  4 space group operations
 (whereof  2 operations were pure point group operations)
 out of a pool of  4 trial point group operations.


The static configuration has the point symmetry S_2 .
 The point group associated with its full space group is C_2h.


Analysis of symmetry for dynamics (positions and initial velocities):
=====================================================================
 Subroutine PRICEL returns:
 Original cell was already a primitive cell.
 

 Routine SETGRP: Setting up the symmetry group for a 
 simple monoclinic supercell.


 Subroutine GETGRP returns: Found  4 space group operations
 (whereof  2 operations were pure point group operations)
 out of a pool of  4 trial point group operations.


The dynamic configuration has the point symmetry S_2 .
 The point group associated with its full space group is C_2h.


 Subroutine INISYM returns: Found  4 space group operations
 (whereof  2 operations are pure point group operations),
 and found     1 'primitive' translations


----------------------------------------------------------------------------------------

                                     Primitive cell                                     

  volume of cell :     322.9614

  direct lattice vectors                    reciprocal lattice vectors
     8.099729538  0.000000000  0.000000000     0.123460913 -0.000000000  0.026531524
     0.000000000  5.439129829  0.000000000     0.000000000  0.183852938 -0.000000000
    -1.575372927  0.000000000  7.330787928     0.000000000  0.000000000  0.136410985

  length of vectors
     8.099729538  5.439129829  7.498149872     0.126279526  0.183852938  0.136410985

  position of ions in fractional coordinates (direct lattice)
     0.367453042  0.789773164  0.110199541
     0.632546928  0.210226836  0.889800459
     0.632546928  0.289773164  0.389800459
     0.367453042  0.710226836  0.610199541
     0.159008787  0.263056180  0.298433468
     0.840991243  0.736943850  0.701566562
     0.840991243  0.763056150  0.201566532
     0.159008787  0.236943820  0.798433438
     0.186711857  0.159007968  0.054836029
     0.813288113  0.840992062  0.945163949
     0.813288113  0.659007938  0.445163979
     0.186711857  0.340992032  0.554836051
     0.033755510  0.555632009  0.210605014
     0.966244479  0.444367991  0.789394971
     0.966244479  0.055632009  0.289394971
     0.033755510  0.944367991  0.710605029
     0.374172196  0.467560245  0.313046634
     0.625827804  0.532439755  0.686953396
     0.625827804  0.967560245  0.186953366
     0.374172196  0.032439755  0.813046604
     0.322967124  0.984227539  0.379449094
     0.677032876  0.015772461  0.620550876
     0.677032876  0.484227539  0.120550906
     0.322967124  0.515772461  0.879449124

  ion indices of the primitive-cell ions
   primitive index   ion index
                 1           1
                 2           2
                 3           3
                 4           4
                 5           5
                 6           6
                 7           7
                 8           8
                 9           9
                10          10
                11          11
                12          12
                13          13
                14          14
                15          15
                16          16
                17          17
                18          18
                19          19
                20          20
                21          21
                22          22
                23          23
                24          24

----------------------------------------------------------------------------------------



 KPOINTS: NbOF3_W11-333-vasp_21-relcw             

Automatic generation of k-mesh.
 Grid dimensions read from file:
 generate k-points for:    4    6    4

 Generating k-lattice:

  Cartesian coordinates                     Fractional coordinates (reciprocal lattice)
     0.030865228 -0.000000000  0.006632881     0.250000000  0.000000000  0.000000000
     0.000000000  0.030642156 -0.000000000     0.000000000  0.166666667  0.000000000
     0.000000000  0.000000000  0.034102746     0.000000000  0.000000000  0.250000000

  Length of vectors
     0.031569882  0.030642156  0.034102746

  Shift w.r.t. Gamma in fractional coordinates (k-lattice)
     0.500000000  0.500000000  0.500000000

 
 Subroutine IBZKPT returns following result:
 ===========================================
 
 Found     24 irreducible k-points:
 
 Following reciprocal coordinates:
            Coordinates               Weight
  0.125000  0.083333  0.125000      4.000000
  0.375000  0.083333  0.125000      4.000000
 -0.375000  0.083333  0.125000      4.000000
 -0.125000  0.083333  0.125000      4.000000
  0.125000  0.250000  0.125000      4.000000
  0.375000  0.250000  0.125000      4.000000
 -0.375000  0.250000  0.125000      4.000000
 -0.125000  0.250000  0.125000      4.000000
  0.125000  0.416667  0.125000      4.000000
  0.375000  0.416667  0.125000      4.000000
 -0.375000  0.416667  0.125000      4.000000
 -0.125000  0.416667  0.125000      4.000000
  0.125000  0.083333  0.375000      4.000000
  0.375000  0.083333  0.375000      4.000000
 -0.375000  0.083333  0.375000      4.000000
 -0.125000  0.083333  0.375000      4.000000
  0.125000  0.250000  0.375000      4.000000
  0.375000  0.250000  0.375000      4.000000
 -0.375000  0.250000  0.375000      4.000000
 -0.125000  0.250000  0.375000      4.000000
  0.125000  0.416667  0.375000      4.000000
  0.375000  0.416667  0.375000      4.000000
 -0.375000  0.416667  0.375000      4.000000
 -0.125000  0.416667  0.375000      4.000000
 
 Following cartesian coordinates:
            Coordinates               Weight
  0.015433  0.015321  0.020368      4.000000
  0.046298  0.015321  0.027001      4.000000
 -0.046298  0.015321  0.007102      4.000000
 -0.015433  0.015321  0.013735      4.000000
  0.015433  0.045963  0.020368      4.000000
  0.046298  0.045963  0.027001      4.000000
 -0.046298  0.045963  0.007102      4.000000
 -0.015433  0.045963  0.013735      4.000000
  0.015433  0.076605  0.020368      4.000000
  0.046298  0.076605  0.027001      4.000000
 -0.046298  0.076605  0.007102      4.000000
 -0.015433  0.076605  0.013735      4.000000
  0.015433  0.015321  0.054471      4.000000
  0.046298  0.015321  0.061103      4.000000
 -0.046298  0.015321  0.041205      4.000000
 -0.015433  0.015321  0.047838      4.000000
  0.015433  0.045963  0.054471      4.000000
  0.046298  0.045963  0.061103      4.000000
 -0.046298  0.045963  0.041205      4.000000
 -0.015433  0.045963  0.047838      4.000000
  0.015433  0.076605  0.054471      4.000000
  0.046298  0.076605  0.061103      4.000000
 -0.046298  0.076605  0.041205      4.000000
 -0.015433  0.076605  0.047838      4.000000
 
 
 Subroutine IBZKPT_HF returns following result:
 ==============================================
 
 Found     96 k-points in 1st BZ
 the following     96 k-points will be used (e.g. in the exchange kernel)
 Following reciprocal coordinates:   # in IRBZ
  0.125000  0.083333  0.125000    0.01041667   1 t-inv F
  0.375000  0.083333  0.125000    0.01041667   2 t-inv F
 -0.375000  0.083333  0.125000    0.01041667   3 t-inv F
 -0.125000  0.083333  0.125000    0.01041667   4 t-inv F
  0.125000  0.250000  0.125000    0.01041667   5 t-inv F
  0.375000  0.250000  0.125000    0.01041667   6 t-inv F
 -0.375000  0.250000  0.125000    0.01041667   7 t-inv F
 -0.125000  0.250000  0.125000    0.01041667   8 t-inv F
  0.125000  0.416667  0.125000    0.01041667   9 t-inv F
  0.375000  0.416667  0.125000    0.01041667  10 t-inv F
 -0.375000  0.416667  0.125000    0.01041667  11 t-inv F
 -0.125000  0.416667  0.125000    0.01041667  12 t-inv F
  0.125000  0.083333  0.375000    0.01041667  13 t-inv F
  0.375000  0.083333  0.375000    0.01041667  14 t-inv F
 -0.375000  0.083333  0.375000    0.01041667  15 t-inv F
 -0.125000  0.083333  0.375000    0.01041667  16 t-inv F
  0.125000  0.250000  0.375000    0.01041667  17 t-inv F
  0.375000  0.250000  0.375000    0.01041667  18 t-inv F
 -0.375000  0.250000  0.375000    0.01041667  19 t-inv F
 -0.125000  0.250000  0.375000    0.01041667  20 t-inv F
  0.125000  0.416667  0.375000    0.01041667  21 t-inv F
  0.375000  0.416667  0.375000    0.01041667  22 t-inv F
 -0.375000  0.416667  0.375000    0.01041667  23 t-inv F
 -0.125000  0.416667  0.375000    0.01041667  24 t-inv F
 -0.125000 -0.083333 -0.125000    0.01041667   1 t-inv F
 -0.125000  0.083333 -0.125000    0.01041667   1 t-inv F
  0.125000 -0.083333  0.125000    0.01041667   1 t-inv F
 -0.375000 -0.083333 -0.125000    0.01041667   2 t-inv F
 -0.375000  0.083333 -0.125000    0.01041667   2 t-inv F
  0.375000 -0.083333  0.125000    0.01041667   2 t-inv F
  0.375000 -0.083333 -0.125000    0.01041667   3 t-inv F
  0.375000  0.083333 -0.125000    0.01041667   3 t-inv F
 -0.375000 -0.083333  0.125000    0.01041667   3 t-inv F
  0.125000 -0.083333 -0.125000    0.01041667   4 t-inv F
  0.125000  0.083333 -0.125000    0.01041667   4 t-inv F
 -0.125000 -0.083333  0.125000    0.01041667   4 t-inv F
 -0.125000 -0.250000 -0.125000    0.01041667   5 t-inv F
 -0.125000  0.250000 -0.125000    0.01041667   5 t-inv F
  0.125000 -0.250000  0.125000    0.01041667   5 t-inv F
 -0.375000 -0.250000 -0.125000    0.01041667   6 t-inv F
 -0.375000  0.250000 -0.125000    0.01041667   6 t-inv F
  0.375000 -0.250000  0.125000    0.01041667   6 t-inv F
  0.375000 -0.250000 -0.125000    0.01041667   7 t-inv F
  0.375000  0.250000 -0.125000    0.01041667   7 t-inv F
 -0.375000 -0.250000  0.125000    0.01041667   7 t-inv F
  0.125000 -0.250000 -0.125000    0.01041667   8 t-inv F
  0.125000  0.250000 -0.125000    0.01041667   8 t-inv F
 -0.125000 -0.250000  0.125000    0.01041667   8 t-inv F
 -0.125000 -0.416667 -0.125000    0.01041667   9 t-inv F
 -0.125000  0.416667 -0.125000    0.01041667   9 t-inv F
  0.125000 -0.416667  0.125000    0.01041667   9 t-inv F
 -0.375000 -0.416667 -0.125000    0.01041667  10 t-inv F
 -0.375000  0.416667 -0.125000    0.01041667  10 t-inv F
  0.375000 -0.416667  0.125000    0.01041667  10 t-inv F
  0.375000 -0.416667 -0.125000    0.01041667  11 t-inv F
  0.375000  0.416667 -0.125000    0.01041667  11 t-inv F
 -0.375000 -0.416667  0.125000    0.01041667  11 t-inv F
  0.125000 -0.416667 -0.125000    0.01041667  12 t-inv F
  0.125000  0.416667 -0.125000    0.01041667  12 t-inv F
 -0.125000 -0.416667  0.125000    0.01041667  12 t-inv F
 -0.125000 -0.083333 -0.375000    0.01041667  13 t-inv F
 -0.125000  0.083333 -0.375000    0.01041667  13 t-inv F
  0.125000 -0.083333  0.375000    0.01041667  13 t-inv F
 -0.375000 -0.083333 -0.375000    0.01041667  14 t-inv F
 -0.375000  0.083333 -0.375000    0.01041667  14 t-inv F
  0.375000 -0.083333  0.375000    0.01041667  14 t-inv F
  0.375000 -0.083333 -0.375000    0.01041667  15 t-inv F
  0.375000  0.083333 -0.375000    0.01041667  15 t-inv F
 -0.375000 -0.083333  0.375000    0.01041667  15 t-inv F
  0.125000 -0.083333 -0.375000    0.01041667  16 t-inv F
  0.125000  0.083333 -0.375000    0.01041667  16 t-inv F
 -0.125000 -0.083333  0.375000    0.01041667  16 t-inv F
 -0.125000 -0.250000 -0.375000    0.01041667  17 t-inv F
 -0.125000  0.250000 -0.375000    0.01041667  17 t-inv F
  0.125000 -0.250000  0.375000    0.01041667  17 t-inv F
 -0.375000 -0.250000 -0.375000    0.01041667  18 t-inv F
 -0.375000  0.250000 -0.375000    0.01041667  18 t-inv F
  0.375000 -0.250000  0.375000    0.01041667  18 t-inv F
  0.375000 -0.250000 -0.375000    0.01041667  19 t-inv F
  0.375000  0.250000 -0.375000    0.01041667  19 t-inv F
 -0.375000 -0.250000  0.375000    0.01041667  19 t-inv F
  0.125000 -0.250000 -0.375000    0.01041667  20 t-inv F
  0.125000  0.250000 -0.375000    0.01041667  20 t-inv F
 -0.125000 -0.250000  0.375000    0.01041667  20 t-inv F
 -0.125000 -0.416667 -0.375000    0.01041667  21 t-inv F
 -0.125000  0.416667 -0.375000    0.01041667  21 t-inv F
  0.125000 -0.416667  0.375000    0.01041667  21 t-inv F
 -0.375000 -0.416667 -0.375000    0.01041667  22 t-inv F
 -0.375000  0.416667 -0.375000    0.01041667  22 t-inv F
  0.375000 -0.416667  0.375000    0.01041667  22 t-inv F
  0.375000 -0.416667 -0.375000    0.01041667  23 t-inv F
  0.375000  0.416667 -0.375000    0.01041667  23 t-inv F
 -0.375000 -0.416667  0.375000    0.01041667  23 t-inv F
  0.125000 -0.416667 -0.375000    0.01041667  24 t-inv F
  0.125000  0.416667 -0.375000    0.01041667  24 t-inv F
 -0.125000 -0.416667  0.375000    0.01041667  24 t-inv F


--------------------------------------------------------------------------------------------------------




 Dimension of arrays:
   k-points           NKPTS =     24   k-points in BZ     NKDIM =     24   number of bands    NBANDS=    115
   number of dos      NEDOS =    301   number of ions     NIONS =     24
   non local maximal  LDIM  =      8   non local SUM 2l+1 LMDIM =     26
   total plane-waves  NPLWV =  73728
   max r-space proj   IRMAX =   2952   max aug-charges    IRDMAX=   8934
   dimension x,y,z NGX =    48 NGY =   32 NGZ =   48
   dimension x,y,z NGXF=    96 NGYF=   64 NGZF=   96
   support grid    NGXF=    96 NGYF=   64 NGZF=   96
   ions per type =               4   4   8   8
   NGX,Y,Z   is equivalent  to a cutoff of   9.85,  9.78, 10.64 a.u.
   NGXF,Y,Z  is equivalent  to a cutoff of  19.70, 19.56, 21.28 a.u.

 SYSTEM =  unknown system                          
 POSCAR =  Sodium difluorodioxoniobate             

 Startparameter for this run:
   NWRITE =      2    write-flag & timer
   PREC   = n         normal or accurate (medium, high low for compatibility)
   ISTART =      0    job   : 0-new  1-cont  2-samecut
   ICHARG =      2    charge: 1-file 2-atom 10-const
   ISPIN  =      1    spin polarized calculation?
   LNONCOLLINEAR =      F non collinear calculations
   LSORBIT =      F    spin-orbit coupling
   INIWAV =      1    electr: 0-lowe 1-rand  2-diag
   LASPH  =      F    aspherical Exc in radial PAW
 Electronic Relaxation 1
   ENCUT  =  550.0 eV  40.42 Ry    6.36 a.u.  15.49 10.40 14.34*2*pi/ulx,y,z
   ENINI  =  550.0     initial cutoff
   ENAUG  =  718.3 eV  augmentation charge cutoff
   NELM   =     60;   NELMIN=  2; NELMDL= -5     # of ELM steps 
   EDIFF  = 0.1E-07   stopping-criterion for ELM
   LREAL  =      T    real-space projection
   NLSPLINE    = F    spline interpolate recip. space projectors
   LCOMPAT=      F    compatible to vasp.4.4
   GGA_COMPAT  = T    GGA compatible to vasp.4.4-vasp.4.6
   LMAXPAW     = -100 max onsite density
   LMAXMIX     =    2 max onsite mixed and CHGCAR
   VOSKOWN=      0    Vosko Wilk Nusair interpolation
   ROPT   =   -0.00050  -0.00050  -0.00050  -0.00050
 Ionic relaxation
   EDIFFG = 0.1E-06   stopping-criterion for IOM
   NSW    =      0    number of steps for IOM
   NBLOCK =      1;   KBLOCK =      1    inner block; outer block 
   IBRION =     -1    ionic relax: 0-MD 1-quasi-New 2-CG
   NFREE  =      0    steps in history (QN), initial steepest desc. (CG)
   ISIF   =      2    stress and relaxation
   IWAVPR =     10    prediction:  0-non 1-charg 2-wave 3-comb
   ISYM   =      2    0-nonsym 1-usesym 2-fastsym
   LCORR  =      T    Harris-Foulkes like correction to forces

   POTIM  = 0.5000    time-step for ionic-motion
   TEIN   =    0.0    initial temperature
   TEBEG  =    0.0;   TEEND  =   0.0 temperature during run
   SMASS  =  -3.00    Nose mass-parameter (am)
   estimated Nose-frequenzy (Omega)   =  0.10E-29 period in steps = 0.13E+47 mass=  -0.150E-26a.u.
   SCALEE = 1.0000    scale energy and forces
   NPACO  =    256;   APACO  = 16.0  distance and # of slots for P.C.
   PSTRESS=    0.0 pullay stress

  Mass of Ions in am
   POMASS =  22.99180.95 16.00 19.00
  Ionic Valenz
   ZVAL   =   9.00 13.00  6.00  7.00
  Atomic Wigner-Seitz radii
   RWIGS  =  -1.00 -1.00 -1.00 -1.00
  virtual crystal weights 
   VCA    =   1.00  1.00  1.00  1.00
   NELECT =     192.0000    total number of electrons
   NUPDOWN=      -1.0000    fix difference up-down

 DOS related values:
   EMIN   =  10.00;   EMAX   =-10.00  energy-range for DOS
   EFERMI =   0.00
   ISMEAR =     0;   SIGMA  =   0.01  broadening in eV -4-tet -1-fermi 0-gaus

 Electronic relaxation 2 (details)
   IALGO  =     38    algorithm
   LDIAG  =      T    sub-space diagonalisation (order eigenvalues)
   LSUBROT=      F    optimize rotation matrix (better conditioning)
   TURBO    =      0    0=normal 1=particle mesh
   IRESTART =      0    0=no restart 2=restart with 2 vectors
   NREBOOT  =      0    no. of reboots
   NMIN     =      0    reboot dimension
   EREF     =   0.00    reference energy to select bands
   IMIX   =      4    mixing-type and parameters
     AMIX     =   0.40;   BMIX     =  1.00
     AMIX_MAG =   1.60;   BMIX_MAG =  1.00
     AMIN     =   0.10
     WC   =   100.;   INIMIX=   1;  MIXPRE=   1;  MAXMIX= -45

 Intra band minimization:
   WEIMIN = 0.0000     energy-eigenvalue tresh-hold
   EBREAK =  0.22E-10  absolut break condition
   DEPER  =   0.30     relativ break condition  

   TIME   =   0.40     timestep for ELM

  volume/ion in A,a.u.               =      13.46        90.81
  Fermi-wavevector in a.u.,A,eV,Ry     =   1.376549  2.601301 25.781509  1.894887
  Thomas-Fermi vector in A             =   2.501784

 Write flags
   LWAVE        =      T    write WAVECAR
   LDOWNSAMPLE  =      F    k-point downsampling of WAVECAR
   LCHARG       =      T    write CHGCAR
   LVTOT        =      F    write LOCPOT, total local potential
   LVHAR        =      F    write LOCPOT, Hartree potential only
   LELF         =      F    write electronic localiz. function (ELF)
   LORBIT       =      0    0 simple, 1 ext, 2 COOP (PROOUT), +10 PAW based schemes


 Dipole corrections
   LMONO  =      F    monopole corrections only (constant potential shift)
   LDIPOL =      F    correct potential (dipole corrections)
   IDIPOL =      0    1-x, 2-y, 3-z, 4-all directions 
   EPSILON=  1.0000000 bulk dielectric constant

 Exchange correlation treatment:
   GGA     =    --    GGA type
   LEXCH   =     8    internal setting for exchange type
   VOSKOWN=      0    Vosko Wilk Nusair interpolation
   LHFCALC =     F    Hartree Fock is set to
   LHFONE  =     F    Hartree Fock one center treatment
   AEXX    =    0.0000 exact exchange contribution

 Linear response parameters
   LEPSILON=     F    determine dielectric tensor
   LRPA    =     F    only Hartree local field effects (RPA)
   LNABLA  =     F    use nabla operator in PAW spheres
   LVEL    =     F    velocity operator in full k-point grid
   LINTERFAST=   F  fast interpolation
   KINTER  =     0    interpolate to denser k-point grid
   CSHIFT  =0.1000    complex shift for real part using Kramers Kronig
   OMEGAMAX=  -1.0    maximum frequency
   DEG_THRESHOLD= 0.2000000E-02 threshold for treating states as degnerate
   RTIME   =   -0.100 relaxation time in fs
  (WPLASMAI=    0.000 imaginary part of plasma frequency in eV, 0.658/RTIME)
   DFIELD  = 0.0000000 0.0000000 0.0000000 field for delta impulse in time

 Orbital magnetization related:
   ORBITALMAG=     F  switch on orbital magnetization
   LMAGBLOCH =     F  use Bloch summation to obtain orbital mag.
   LCHIMAG   =     T  perturbation theory with respect to B field
   DQ        =  0.003000  dq finite difference perturbation B field
   LGAUGE    =     T  gauge transformation for 0 moment terms
   NUCIND    =     F  nuclear independent calculation        
   MAGPOS    =    0.0000    0.0000    0.0000  position of magnetic moment in nuclear independent calculation
   MAGATOM   =     0  atom on which magnetic dipole is placed
   JATOM     =     0  atom on which magnetic dipole is evaluated
   MAGDIPOL  =    0.0000    0.0000    0.0000 magnetic dipole

 Orbital magnetization related:
   ORBITALMAG=     F  switch on orbital magnetization
   LCHIMAG   =     T  perturbation theory with respect to B field
   DQ        =  0.003000  dq finite difference perturbation B field
   LLRAUG    =     F  two centre corrections for induced B field



--------------------------------------------------------------------------------------------------------


 Static calculation
 charge density and potential will be updated during run
 non-spin polarized calculation
 Variant of blocked Davidson
 Davidson routine will perform the subspace rotation
 perform sub-space diagonalisation
    after iterative eigenvector-optimisation
 modified Broyden-mixing scheme, WC =      100.0
 initial mixing is a Kerker type mixing with AMIX =  0.4000 and BMIX =      1.0000
 Hartree-type preconditioning will be used
 using additional bands           19
 real space projection scheme for non local part
 use partial core corrections
 calculate Harris-corrections to forces   (improved forces if not selfconsistent)
 use gradient corrections 
 use of overlap-Matrix (Vanderbilt PP)
 Gauss-broadening in eV      SIGMA  =   0.01


--------------------------------------------------------------------------------------------------------


  energy-cutoff  :      550.00
  volume of cell :      322.96
      direct lattice vectors                 reciprocal lattice vectors
     8.099729538  0.000000000  0.000000000     0.123460913 -0.000000000  0.026531524
     0.000000000  5.439129829  0.000000000     0.000000000  0.183852938 -0.000000000
    -1.575372927  0.000000000  7.330787928     0.000000000  0.000000000  0.136410985

  length of vectors
     8.099729538  5.439129829  7.498149872     0.126279526  0.183852938  0.136410985



 k-points in units of 2pi/SCALE and weight: NbOF3_W11-333-vasp_21-relcw             
   0.01543261  0.01532108  0.02036781       0.042
   0.04629784  0.01532108  0.02700069       0.042
  -0.04629784  0.01532108  0.00710205       0.042
  -0.01543261  0.01532108  0.01373493       0.042
   0.01543261  0.04596323  0.02036781       0.042
   0.04629784  0.04596323  0.02700069       0.042
  -0.04629784  0.04596323  0.00710205       0.042
  -0.01543261  0.04596323  0.01373493       0.042
   0.01543261  0.07660539  0.02036781       0.042
   0.04629784  0.07660539  0.02700069       0.042
  -0.04629784  0.07660539  0.00710205       0.042
  -0.01543261  0.07660539  0.01373493       0.042
   0.01543261  0.01532108  0.05447056       0.042
   0.04629784  0.01532108  0.06110344       0.042
  -0.04629784  0.01532108  0.04120480       0.042
  -0.01543261  0.01532108  0.04783768       0.042
   0.01543261  0.04596323  0.05447056       0.042
   0.04629784  0.04596323  0.06110344       0.042
  -0.04629784  0.04596323  0.04120480       0.042
  -0.01543261  0.04596323  0.04783768       0.042
   0.01543261  0.07660539  0.05447056       0.042
   0.04629784  0.07660539  0.06110344       0.042
  -0.04629784  0.07660539  0.04120480       0.042
  -0.01543261  0.07660539  0.04783768       0.042

 k-points in reciprocal lattice and weights: NbOF3_W11-333-vasp_21-relcw             
   0.12500000  0.08333333  0.12500000       0.042
   0.37500000  0.08333333  0.12500000       0.042
  -0.37500000  0.08333333  0.12500000       0.042
  -0.12500000  0.08333333  0.12500000       0.042
   0.12500000  0.25000000  0.12500000       0.042
   0.37500000  0.25000000  0.12500000       0.042
  -0.37500000  0.25000000  0.12500000       0.042
  -0.12500000  0.25000000  0.12500000       0.042
   0.12500000  0.41666667  0.12500000       0.042
   0.37500000  0.41666667  0.12500000       0.042
  -0.37500000  0.41666667  0.12500000       0.042
  -0.12500000  0.41666667  0.12500000       0.042
   0.12500000  0.08333333  0.37500000       0.042
   0.37500000  0.08333333  0.37500000       0.042
  -0.37500000  0.08333333  0.37500000       0.042
  -0.12500000  0.08333333  0.37500000       0.042
   0.12500000  0.25000000  0.37500000       0.042
   0.37500000  0.25000000  0.37500000       0.042
  -0.37500000  0.25000000  0.37500000       0.042
  -0.12500000  0.25000000  0.37500000       0.042
   0.12500000  0.41666667  0.37500000       0.042
   0.37500000  0.41666667  0.37500000       0.042
  -0.37500000  0.41666667  0.37500000       0.042
  -0.12500000  0.41666667  0.37500000       0.042

 position of ions in fractional coordinates (direct lattice) 
   0.36745304  0.78977316  0.11019954
   0.63254693  0.21022684  0.88980046
   0.63254693  0.28977316  0.38980046
   0.36745304  0.71022684  0.61019954
   0.15900879  0.26305618  0.29843347
   0.84099124  0.73694385  0.70156656
   0.84099124  0.76305615  0.20156653
   0.15900879  0.23694382  0.79843344
   0.18671186  0.15900797  0.05483603
   0.81328811  0.84099206  0.94516395
   0.81328811  0.65900794  0.44516398
   0.18671186  0.34099203  0.55483605
   0.03375551  0.55563201  0.21060501
   0.96624448  0.44436799  0.78939497
   0.96624448  0.05563201  0.28939497
   0.03375551  0.94436799  0.71060503
   0.37417220  0.46756024  0.31304663
   0.62582780  0.53243976  0.68695340
   0.62582780  0.96756024  0.18695337
   0.37417220  0.03243976  0.81304660
   0.32296712  0.98422754  0.37944909
   0.67703288  0.01577246  0.62055088
   0.67703288  0.48422754  0.12055091
   0.32296712  0.51577246  0.87944912

 position of ions in cartesian coordinates  (Angst):
   2.80266488  4.29567877  0.80784946
   3.72169149  1.14345105  6.52293846
   4.50937795  1.57611386  2.85754450
   2.01497842  3.86301597  4.47324343
   0.81778416  1.43079671  2.18775246
   5.70657264  4.00833328  5.14303568
   6.49425915  4.15036146  1.47764150
   0.03009775  1.28876820  5.85314621
   1.42592835  0.86486498  0.40199130
   5.09842805  4.57426501  6.92879647
   5.88611447  3.58442973  3.26340272
   0.63824185  1.85469994  4.06738542
  -0.05837093  3.02215464  1.54390069
   6.58272748  2.41697519  5.78688713
   7.37041394  0.30258972  2.12149316
  -0.84605742  5.13654011  5.20929476
   2.53752840  2.54312087  2.29487849
   3.98682817  2.89600896  5.03590966
   4.77451468  5.26268579  1.37051548
   1.74984198  0.17644404  5.96027223
   2.01817252  5.35334137  2.78166084
   4.50618413  0.08578846  4.54912687
   5.29387055  2.63377645  0.88373313
   1.23048601  2.80535338  6.44705502



--------------------------------------------------------------------------------------------------------


 k-point   1 :   0.1250 0.0833 0.1250  plane waves:    9475
 k-point   2 :   0.3750 0.0833 0.1250  plane waves:    9476
 k-point   3 :  -0.3750 0.0833 0.1250  plane waves:    9466
 k-point   4 :  -0.1250 0.0833 0.1250  plane waves:    9482
 k-point   5 :   0.1250 0.2500 0.1250  plane waves:    9472
 k-point   6 :   0.3750 0.2500 0.1250  plane waves:    9454
 k-point   7 :  -0.3750 0.2500 0.1250  plane waves:    9460
 k-point   8 :  -0.1250 0.2500 0.1250  plane waves:    9472
 k-point   9 :   0.1250 0.4167 0.1250  plane waves:    9436
 k-point  10 :   0.3750 0.4167 0.1250  plane waves:    9465
 k-point  11 :  -0.3750 0.4167 0.1250  plane waves:    9452
 k-point  12 :  -0.1250 0.4167 0.1250  plane waves:    9445
 k-point  13 :   0.1250 0.0833 0.3750  plane waves:    9461
 k-point  14 :   0.3750 0.0833 0.3750  plane waves:    9469
 k-point  15 :  -0.3750 0.0833 0.3750  plane waves:    9454
 k-point  16 :  -0.1250 0.0833 0.3750  plane waves:    9460
 k-point  17 :   0.1250 0.2500 0.3750  plane waves:    9454
 k-point  18 :   0.3750 0.2500 0.3750  plane waves:    9445
 k-point  19 :  -0.3750 0.2500 0.3750  plane waves:    9452
 k-point  20 :  -0.1250 0.2500 0.3750  plane waves:    9457
 k-point  21 :   0.1250 0.4167 0.3750  plane waves:    9458
 k-point  22 :   0.3750 0.4167 0.3750  plane waves:    9440
 k-point  23 :  -0.3750 0.4167 0.3750  plane waves:    9444
 k-point  24 :  -0.1250 0.4167 0.3750  plane waves:    9453

 maximum and minimum number of plane-waves per node :      9482     9436

 maximum number of plane-waves:      9482
 maximum index in each direction: 
   IXMAX=   15   IYMAX=   10   IZMAX=   14
   IXMIN=  -15   IYMIN=  -10   IZMIN=  -14


 serial   3D FFT for wavefunctions
 parallel 3D FFT for charge:
    minimum data exchange during FFTs selected (reduces bandwidth)


 total amount of memory used by VASP MPI-rank0   539692. kBytes
=======================================================================

   base      :      30000. kBytes
   nonlr-proj:       8554. kBytes
   fftplans  :      20492. kBytes
   grid      :      46129. kBytes
   one-center:        778. kBytes
   wavefun   :     433739. kBytes

     INWAV:  cpu time    0.0001: real time    0.0001
 Broyden mixing: mesh for mixing (old mesh)
   NGX = 31   NGY = 21   NGZ = 29
  (NGX  = 96   NGY  = 64   NGZ  = 96)
  gives a total of  18879 points

 initial charge density was supplied:
 charge density of overlapping atoms calculated
 number of electron     192.0000000 magnetization 
 keeping initial charge density in first step


--------------------------------------------------------------------------------------------------------


 Maximum index for non-local projection operator         2817
 Maximum index for augmentation-charges         8459 (set IRDMAX)


--------------------------------------------------------------------------------------------------------


 First call to EWALD:  gamma=   0.258
 Maximum number of real-space cells 2x 3x 3
 Maximum number of reciprocal cells 3x 2x 3

    FEWALD:  cpu time    0.0058: real time    0.0058


--------------------------------------- Iteration      1(   1)  ---------------------------------------


    POTLOK:  cpu time    0.4301: real time    0.4302
    SETDIJ:  cpu time    0.0487: real time    0.0487
     EDDAV:  cpu time   50.0940: real time   50.0989
       DOS:  cpu time    0.0023: real time    0.0023
    --------------------------------------------
      LOOP:  cpu time   50.5752: real time   50.5802

 eigenvalue-minimisations  :  5544
 total energy-change (2. order) : 0.3547225E+04  (-0.1041852E+05)
 number of electron     192.0000000 magnetization 
 augmentation part      192.0000000 magnetization 

 Free energy of the ion-electron system (eV)
  ---------------------------------------------------
  alpha Z        PSCENC =       648.25968993
  Ewald energy   TEWEN  =    -12639.77910560
  -Hartree energ DENC   =     -5887.14458804
  -exchange      EXHF   =         0.00000000
  -V(xc)+E(xc)   XCENC  =       545.99607374
  PAW double counting   =     15770.03970857   -16012.19339467
  entropy T*S    EENTRO =        -0.00012571
  eigenvalues    EBANDS =       799.14643307
  atomic energy  EATOM  =     20322.90063010
  Solvation  Ediel_sol  =         0.00000000
  ---------------------------------------------------
  free energy    TOTEN  =      3547.22532139 eV

  energy without entropy =     3547.22544710  energy(sigma->0) =     3547.22538425


--------------------------------------------------------------------------------------------------------




--------------------------------------- Iteration      1(   2)  ---------------------------------------


     EDDAV:  cpu time   54.9719: real time   54.9774
       DOS:  cpu time    0.0019: real time    0.0019
    --------------------------------------------
      LOOP:  cpu time   54.9738: real time   54.9793

 eigenvalue-minimisations  :  5564
 total energy-change (2. order) :-0.3130367E+04  (-0.2932719E+04)
 number of electron     192.0000000 magnetization 
 augmentation part      192.0000000 magnetization 

 Free energy of the ion-electron system (eV)
  ---------------------------------------------------
  alpha Z        PSCENC =       648.25968993
  Ewald energy   TEWEN  =    -12639.77910560
  -Hartree energ DENC   =     -5887.14458804
  -exchange      EXHF   =         0.00000000
  -V(xc)+E(xc)   XCENC  =       545.99607374
  PAW double counting   =     15770.03970857   -16012.19339467
  entropy T*S    EENTRO =        -0.00001633
  eigenvalues    EBANDS =     -2331.22034945
  atomic energy  EATOM  =     20322.90063010
  Solvation  Ediel_sol  =         0.00000000
  ---------------------------------------------------
  free energy    TOTEN  =       416.85864825 eV

  energy without entropy =      416.85866458  energy(sigma->0) =      416.85865641


--------------------------------------------------------------------------------------------------------




--------------------------------------- Iteration      1(   3)  ---------------------------------------


     EDDAV:  cpu time   65.1186: real time   65.1248
       DOS:  cpu time    0.0007: real time    0.0007
    --------------------------------------------
      LOOP:  cpu time   65.1193: real time   65.1255

 eigenvalue-minimisations  :  8813
 total energy-change (2. order) :-0.6214603E+03  (-0.6082045E+03)
 number of electron     192.0000000 magnetization 
 augmentation part      192.0000000 magnetization 

 Free energy of the ion-electron system (eV)
  ---------------------------------------------------
  alpha Z        PSCENC =       648.25968993
  Ewald energy   TEWEN  =    -12639.77910560
  -Hartree energ DENC   =     -5887.14458804
  -exchange      EXHF   =         0.00000000
  -V(xc)+E(xc)   XCENC  =       545.99607374
  PAW double counting   =     15770.03970857   -16012.19339467
  entropy T*S    EENTRO =        -0.00000000
  eigenvalues    EBANDS =     -2952.68062945
  atomic energy  EATOM  =     20322.90063010
  Solvation  Ediel_sol  =         0.00000000
  ---------------------------------------------------
  free energy    TOTEN  =      -204.60161542 eV

  energy without entropy =     -204.60161542  energy(sigma->0) =     -204.60161542


--------------------------------------------------------------------------------------------------------




--------------------------------------- Iteration      1(   4)  ---------------------------------------


     EDDAV:  cpu time   66.3452: real time   66.3516
       DOS:  cpu time    0.0006: real time    0.0006
    --------------------------------------------
      LOOP:  cpu time   66.3459: real time   66.3522

 eigenvalue-minimisations  :  8752
 total energy-change (2. order) :-0.3472495E+02  (-0.3460759E+02)
 number of electron     192.0000000 magnetization 
 augmentation part      192.0000000 magnetization 

 Free energy of the ion-electron system (eV)
  ---------------------------------------------------
  alpha Z        PSCENC =       648.25968993
  Ewald energy   TEWEN  =    -12639.77910560
  -Hartree energ DENC   =     -5887.14458804
  -exchange      EXHF   =         0.00000000
  -V(xc)+E(xc)   XCENC  =       545.99607374
  PAW double counting   =     15770.03970857   -16012.19339467
  entropy T*S    EENTRO =        -0.00000000
  eigenvalues    EBANDS =     -2987.40557664
  atomic energy  EATOM  =     20322.90063010
  Solvation  Ediel_sol  =         0.00000000
  ---------------------------------------------------
  free energy    TOTEN  =      -239.32656261 eV

  energy without entropy =     -239.32656261  energy(sigma->0) =     -239.32656261


--------------------------------------------------------------------------------------------------------




--------------------------------------- Iteration      1(   5)  ---------------------------------------


     EDDAV:  cpu time   66.4351: real time   66.4421
       DOS:  cpu time    0.0006: real time    0.0006
    CHARGE:  cpu time    2.3563: real time    2.3565
    MIXING:  cpu time    0.0091: real time    0.0091
    --------------------------------------------
      LOOP:  cpu time   68.8011: real time   68.8083

 eigenvalue-minimisations  :  8600
 total energy-change (2. order) :-0.5541892E+00  (-0.5533540E+00)
 number of electron     192.0000126 magnetization 
 augmentation part       26.9211174 magnetization 

 Broyden mixing:
  rms(total) = 0.11810E+02    rms(broyden)= 0.11809E+02
  rms(prec ) = 0.12525E+02
  weight for this iteration     100.00

 Free energy of the ion-electron system (eV)
  ---------------------------------------------------
  alpha Z        PSCENC =       648.25968993
  Ewald energy   TEWEN  =    -12639.77910560
  -Hartree energ DENC   =     -5887.14458804
  -exchange      EXHF   =         0.00000000
  -V(xc)+E(xc)   XCENC  =       545.99607374
  PAW double counting   =     15770.03970857   -16012.19339467
  entropy T*S    EENTRO =        -0.00000000
  eigenvalues    EBANDS =     -2987.95976581
  atomic energy  EATOM  =     20322.90063010
  Solvation  Ediel_sol  =         0.00000000
  ---------------------------------------------------
  free energy    TOTEN  =      -239.88075178 eV

  energy without entropy =     -239.88075178  energy(sigma->0) =     -239.88075178


--------------------------------------------------------------------------------------------------------




--------------------------------------- Iteration      1(   6)  ---------------------------------------


    POTLOK:  cpu time    0.3060: real time    0.3061
    SETDIJ:  cpu time    0.0414: real time    0.0414
     EDDAV:  cpu time   67.3129: real time   67.3193
       DOS:  cpu time    0.0006: real time    0.0006
    CHARGE:  cpu time    2.3532: real time    2.3535
    MIXING:  cpu time    0.0085: real time    0.0085
    --------------------------------------------
      LOOP:  cpu time   70.0226: real time   70.0293

 eigenvalue-minimisations  :  8712
 total energy-change (2. order) : 0.4133943E+02  (-0.1766430E+02)
 number of electron     192.0000119 magnetization 
 augmentation part       23.2286687 magnetization 

 Broyden mixing:
  rms(total) = 0.19524E+02    rms(broyden)= 0.19524E+02
  rms(prec ) = 0.19554E+02
  weight for this iteration     100.00

 eigenvalues of (default mixing * dielectric matrix)
  average eigenvalue GAMMA=   0.9077
  0.9077

 Free energy of the ion-electron system (eV)
  ---------------------------------------------------
  alpha Z        PSCENC =       648.25968993
  Ewald energy   TEWEN  =    -12639.77910560
  -Hartree energ DENC   =     -6030.93596937
  -exchange      EXHF   =         0.00000000
  -V(xc)+E(xc)   XCENC  =       562.22886972
  PAW double counting   =     18551.59825314   -18809.77950210
  entropy T*S    EENTRO =        -0.00000000
  eigenvalues    EBANDS =     -2803.03418336
  atomic energy  EATOM  =     20322.90063010
  Solvation  Ediel_sol  =         0.00000000
  ---------------------------------------------------
  free energy    TOTEN  =      -198.54131754 eV

  energy without entropy =     -198.54131754  energy(sigma->0) =     -198.54131754


--------------------------------------------------------------------------------------------------------




--------------------------------------- Iteration      1(   7)  ---------------------------------------


    POTLOK:  cpu time    0.3056: real time    0.3056
    SETDIJ:  cpu time    0.0411: real time    0.0411
     EDDAV:  cpu time   67.8620: real time   67.8685
       DOS:  cpu time    0.0006: real time    0.0006
    CHARGE:  cpu time    2.3484: real time    2.3486
    MIXING:  cpu time    0.0083: real time    0.0083
    --------------------------------------------
      LOOP:  cpu time   70.5658: real time   70.5726

 eigenvalue-minimisations  :  8424
 total energy-change (2. order) :-0.3426410E+01  (-0.1231632E+01)
 number of electron     192.0000120 magnetization 
 augmentation part       22.8657093 magnetization 

 Broyden mixing:
  rms(total) = 0.17699E+02    rms(broyden)= 0.17699E+02
  rms(prec ) = 0.17767E+02
  weight for this iteration     100.00

 eigenvalues of (default mixing * dielectric matrix)
  average eigenvalue GAMMA=   2.4395
  0.8125  4.0665

 Free energy of the ion-electron system (eV)
  ---------------------------------------------------
  alpha Z        PSCENC =       648.25968993
  Ewald energy   TEWEN  =    -12639.77910560
  -Hartree energ DENC   =     -6060.84172015
  -exchange      EXHF   =         0.00000000
  -V(xc)+E(xc)   XCENC  =       564.02134355
  PAW double counting   =     17038.54730955   -17299.04402294
  entropy T*S    EENTRO =        -0.00000000
  eigenvalues    EBANDS =     -2776.03185196
  atomic energy  EATOM  =     20322.90063010
  Solvation  Ediel_sol  =         0.00000000
  ---------------------------------------------------
  free energy    TOTEN  =      -201.96772752 eV

  energy without entropy =     -201.96772752  energy(sigma->0) =     -201.96772752


--------------------------------------------------------------------------------------------------------




--------------------------------------- Iteration      1(   8)  ---------------------------------------


    POTLOK:  cpu time    0.2844: real time    0.2845
    SETDIJ:  cpu time    0.0400: real time    0.0400
     EDDAV:  cpu time   61.1084: real time   61.1142
       DOS:  cpu time    0.0006: real time    0.0006
    CHARGE:  cpu time    2.6591: real time    2.6594
    MIXING:  cpu time    0.0111: real time    0.0111
    --------------------------------------------
      LOOP:  cpu time   64.1037: real time   64.1097

 eigenvalue-minimisations  :  8064
 total energy-change (2. order) :-0.4572853E+01  (-0.2865392E+01)
 number of electron     192.0000121 magnetization 
 augmentation part       24.1277426 magnetization 

 Broyden mixing:
  rms(total) = 0.39169E+02    rms(broyden)= 0.39169E+02
  rms(prec ) = 0.39219E+02
  weight for this iteration     100.00

 eigenvalues of (default mixing * dielectric matrix)
  average eigenvalue GAMMA=   1.6588
  2.0913  2.0913  0.7938

 Free energy of the ion-electron system (eV)
  ---------------------------------------------------
  alpha Z        PSCENC =       648.25968993
  Ewald energy   TEWEN  =    -12639.77910560
  -Hartree energ DENC   =     -6058.05337362
  -exchange      EXHF   =         0.00000000
  -V(xc)+E(xc)   XCENC  =       561.13735466
  PAW double counting   =     12953.20501405   -13208.55269513
  entropy T*S    EENTRO =        -0.00000000
  eigenvalues    EBANDS =     -2785.65809460
  atomic energy  EATOM  =     20322.90063010
  Solvation  Ediel_sol  =         0.00000000
  ---------------------------------------------------
  free energy    TOTEN  =      -206.54058020 eV

  energy without entropy =     -206.54058020  energy(sigma->0) =     -206.54058020


--------------------------------------------------------------------------------------------------------




--------------------------------------- Iteration      1(   9)  ---------------------------------------


    POTLOK:  cpu time    0.3797: real time    0.3798
    SETDIJ:  cpu time    0.0481: real time    0.0481
     EDDAV:  cpu time   62.3790: real time   62.3850
       DOS:  cpu time    0.0006: real time    0.0006
    CHARGE:  cpu time    2.4124: real time    2.4126
    MIXING:  cpu time    0.0096: real time    0.0096
    --------------------------------------------
      LOOP:  cpu time   65.2295: real time   65.2358

 eigenvalue-minimisations  :  7720
 total energy-change (2. order) : 0.9787065E+01  (-0.3218518E+01)
 number of electron     192.0000117 magnetization 
 augmentation part       23.5686284 magnetization 

 Broyden mixing:
  rms(total) = 0.22546E+02    rms(broyden)= 0.22546E+02
  rms(prec ) = 0.22549E+02
  weight for this iteration     100.00

 eigenvalues of (default mixing * dielectric matrix)
  average eigenvalue GAMMA=   1.1786
  1.9395  1.3909  0.6919  0.6919

 Free energy of the ion-electron system (eV)
  ---------------------------------------------------
  alpha Z        PSCENC =       648.25968993
  Ewald energy   TEWEN  =    -12639.77910560
  -Hartree energ DENC   =     -5951.94751605
  -exchange      EXHF   =         0.00000000
  -V(xc)+E(xc)   XCENC  =       558.74754231
  PAW double counting   =     38089.31381743   -38342.49596633
  entropy T*S    EENTRO =        -0.00000000
  eigenvalues    EBANDS =     -2881.75260706
  atomic energy  EATOM  =     20322.90063010
  Solvation  Ediel_sol  =         0.00000000
  ---------------------------------------------------
  free energy    TOTEN  =      -196.75351526 eV

  energy without entropy =     -196.75351526  energy(sigma->0) =     -196.75351526


--------------------------------------------------------------------------------------------------------




--------------------------------------- Iteration      1(  10)  ---------------------------------------


    POTLOK:  cpu time    0.3139: real time    0.3139
    SETDIJ:  cpu time    0.0422: real time    0.0422
     EDDAV:  cpu time   69.1731: real time   69.1798
       DOS:  cpu time    0.0006: real time    0.0006
    CHARGE:  cpu time    2.4180: real time    2.4183
    MIXING:  cpu time    0.0100: real time    0.0100
    --------------------------------------------
      LOOP:  cpu time   71.9578: real time   71.9648

 eigenvalue-minimisations  :  8544
 total energy-change (2. order) :-0.3622675E+00  (-0.4631048E+00)
 number of electron     192.0000117 magnetization 
 augmentation part       23.4131008 magnetization 

 Broyden mixing:
  rms(total) = 0.17623E+02    rms(broyden)= 0.17623E+02
  rms(prec ) = 0.17629E+02
  weight for this iteration     100.00

 eigenvalues of (default mixing * dielectric matrix)
  average eigenvalue GAMMA=   0.9828
  1.9383  1.4258  0.7277  0.7277  0.0945

 Free energy of the ion-electron system (eV)
  ---------------------------------------------------
  alpha Z        PSCENC =       648.25968993
  Ewald energy   TEWEN  =    -12639.77910560
  -Hartree energ DENC   =     -5957.57120197
  -exchange      EXHF   =         0.00000000
  -V(xc)+E(xc)   XCENC  =       558.79534532
  PAW double counting   =     32137.55589161   -32389.84228456
  entropy T*S    EENTRO =        -0.00000000
  eigenvalues    EBANDS =     -2877.43474762
  atomic energy  EATOM  =     20322.90063010
  Solvation  Ediel_sol  =         0.00000000
  ---------------------------------------------------
  free energy    TOTEN  =      -197.11578279 eV

  energy without entropy =     -197.11578279  energy(sigma->0) =     -197.11578279


--------------------------------------------------------------------------------------------------------




--------------------------------------- Iteration      1(  11)  ---------------------------------------


    POTLOK:  cpu time    0.3150: real time    0.3150
    SETDIJ:  cpu time    0.0420: real time    0.0420
     EDDAV:  cpu time   70.0432: real time   70.0499
       DOS:  cpu time    0.0006: real time    0.0006
    CHARGE:  cpu time    2.4274: real time    2.4277
    MIXING:  cpu time    0.0106: real time    0.0106
    --------------------------------------------
      LOOP:  cpu time   72.8387: real time   72.8457

 eigenvalue-minimisations  :  8712
 total energy-change (2. order) : 0.1766978E+00  (-0.3973202E-01)
 number of electron     192.0000118 magnetization 
 augmentation part       23.5198235 magnetization 

 Broyden mixing:
  rms(total) = 0.12512E+02    rms(broyden)= 0.12512E+02
  rms(prec ) = 0.12515E+02
  weight for this iteration     100.00

 eigenvalues of (default mixing * dielectric matrix)
  average eigenvalue GAMMA=   1.0840
  2.1847  0.8765  0.8765  1.0891  0.7385  0.7385

 Free energy of the ion-electron system (eV)
  ---------------------------------------------------
  alpha Z        PSCENC =       648.25968993
  Ewald energy   TEWEN  =    -12639.77910560
  -Hartree energ DENC   =     -5958.18879497
  -exchange      EXHF   =         0.00000000
  -V(xc)+E(xc)   XCENC  =       558.39290215
  PAW double counting   =     28443.41401401   -28693.41518627
  entropy T*S    EENTRO =        -0.00000000
  eigenvalues    EBANDS =     -2878.52323429
  atomic energy  EATOM  =     20322.90063010
  Solvation  Ediel_sol  =         0.00000000
  ---------------------------------------------------
  free energy    TOTEN  =      -196.93908494 eV

  energy without entropy =     -196.93908494  energy(sigma->0) =     -196.93908494


--------------------------------------------------------------------------------------------------------




--------------------------------------- Iteration      1(  12)  ---------------------------------------


    POTLOK:  cpu time    0.3116: real time    0.3117
    SETDIJ:  cpu time    0.0426: real time    0.0426
     EDDAV:  cpu time   67.0711: real time   67.0776
       DOS:  cpu time    0.0006: real time    0.0006
    CHARGE:  cpu time    2.3798: real time    2.3800
    MIXING:  cpu time    0.0105: real time    0.0105
    --------------------------------------------
      LOOP:  cpu time   69.8161: real time   69.8229

 eigenvalue-minimisations  :  8192
 total energy-change (2. order) : 0.9513929E-01  (-0.2402955E-01)
 number of electron     192.0000117 magnetization 
 augmentation part       23.6064595 magnetization 

 Broyden mixing:
  rms(total) = 0.12237E+01    rms(broyden)= 0.12237E+01
  rms(prec ) = 0.12276E+01
  weight for this iteration     100.00

 eigenvalues of (default mixing * dielectric matrix)
  average eigenvalue GAMMA=   1.3698
  1.8638  1.8638  2.3216  1.1697  0.8132  0.7784  0.7784

 Free energy of the ion-electron system (eV)
  ---------------------------------------------------
  alpha Z        PSCENC =       648.25968993
  Ewald energy   TEWEN  =    -12639.77910560
  -Hartree energ DENC   =     -5964.60365144
  -exchange      EXHF   =         0.00000000
  -V(xc)+E(xc)   XCENC  =       558.25850174
  PAW double counting   =     23608.12204792   -23854.08270355
  entropy T*S    EENTRO =        -0.00000000
  eigenvalues    EBANDS =     -2875.91935475
  atomic energy  EATOM  =     20322.90063010
  Solvation  Ediel_sol  =         0.00000000
  ---------------------------------------------------
  free energy    TOTEN  =      -196.84394565 eV

  energy without entropy =     -196.84394565  energy(sigma->0) =     -196.84394565


--------------------------------------------------------------------------------------------------------




--------------------------------------- Iteration      1(  13)  ---------------------------------------


    POTLOK:  cpu time    0.2900: real time    0.2900
    SETDIJ:  cpu time    0.0404: real time    0.0404
     EDDAV:  cpu time   65.9731: real time   65.9794
       DOS:  cpu time    0.0007: real time    0.0007
    CHARGE:  cpu time    2.6888: real time    2.6891
    MIXING:  cpu time    0.0140: real time    0.0140
    --------------------------------------------
      LOOP:  cpu time   69.0071: real time   69.0137

 eigenvalue-minimisations  :  8784
 total energy-change (2. order) : 0.9992929E-02  (-0.6356289E-02)
 number of electron     192.0000117 magnetization 
 augmentation part       23.6503609 magnetization 

 Broyden mixing:
  rms(total) = 0.14245E+00    rms(broyden)= 0.14245E+00
  rms(prec ) = 0.14777E+00
  weight for this iteration     100.00

 eigenvalues of (default mixing * dielectric matrix)
  average eigenvalue GAMMA=   1.3495
  1.6754  1.6754  2.5129  1.6247  1.0186  0.8013  0.8013  0.6867

 Free energy of the ion-electron system (eV)
  ---------------------------------------------------
  alpha Z        PSCENC =       648.25968993
  Ewald energy   TEWEN  =    -12639.77910560
  -Hartree energ DENC   =     -5969.26821485
  -exchange      EXHF   =         0.00000000
  -V(xc)+E(xc)   XCENC  =       558.26000757
  PAW double counting   =     23140.97769414   -23386.03023978
  entropy T*S    EENTRO =        -0.00000000
  eigenvalues    EBANDS =     -2872.15441423
  atomic energy  EATOM  =     20322.90063010
  Solvation  Ediel_sol  =         0.00000000
  ---------------------------------------------------
  free energy    TOTEN  =      -196.83395272 eV

  energy without entropy =     -196.83395272  energy(sigma->0) =     -196.83395272


--------------------------------------------------------------------------------------------------------




--------------------------------------- Iteration      1(  14)  ---------------------------------------


    POTLOK:  cpu time    0.3873: real time    0.3873
    SETDIJ:  cpu time    0.0469: real time    0.0469
[...]
    18     -0.265403E+01      0.105718E+01     -0.696810E+02
    19     -0.200035E+01     -0.466280E+00     -0.692000E+02
    20     -0.200029E+01     -0.466221E+00     -0.692001E+02
    21     -0.638150E+01      0.883111E+01     -0.621807E+02
    22     -0.638152E+01      0.883112E+01     -0.621806E+02
    23     -0.527097E+01     -0.786168E+01     -0.611342E+02
    24     -0.527093E+01     -0.786167E+01     -0.611343E+02

 -------------------------------------------------------------
   one center paramagnetic contribution
 -------------------------------------------------------------
     1     -0.162787E+01     -0.395117E+01      0.577369E+02
     2     -0.162787E+01     -0.395114E+01      0.577368E+02
     3     -0.160120E+01      0.454688E+01      0.586106E+02
     4     -0.160120E+01      0.454690E+01      0.586106E+02
     5      0.249029E+02     -0.186066E+03      0.604041E+04
     6      0.248983E+02     -0.186067E+03      0.604041E+04
     7      0.302738E+02      0.200559E+03      0.604618E+04
     8      0.302797E+02      0.200565E+03      0.604617E+04
     9      0.642515E+02     -0.817917E+01      0.267876E+03
    10      0.642513E+02     -0.817933E+01      0.267876E+03
    11      0.672470E+02      0.143095E+02      0.243264E+03
    12      0.672468E+02      0.143101E+02      0.243263E+03
    13     -0.483889E+02      0.495731E+02      0.617940E+03
    14     -0.483892E+02      0.495731E+02      0.617940E+03
    15     -0.407686E+02     -0.438040E+02      0.620757E+03
    16     -0.407685E+02     -0.438040E+02      0.620756E+03
    17     -0.133799E+02      0.336241E+01      0.254976E+03
    18     -0.133799E+02      0.336259E+01      0.254975E+03
    19     -0.990206E+01     -0.277431E+00      0.257198E+03
    20     -0.990178E+01     -0.277174E+00      0.257198E+03
    21     -0.311771E+02      0.405194E+02      0.291021E+03
    22     -0.311772E+02      0.405195E+02      0.291022E+03
    23     -0.264285E+02     -0.353656E+02      0.295734E+03
    24     -0.264283E+02     -0.353656E+02      0.295734E+03

 -------------------------------------------------------------
   one center diamagnetic contribution
 -------------------------------------------------------------
     1     -0.381842E-02      0.228733E-01     -0.153652E+03
     2     -0.381854E-02      0.228735E-01     -0.153652E+03
     3     -0.413295E-02     -0.229316E-01     -0.153653E+03
     4     -0.413298E-02     -0.229319E-01     -0.153653E+03
     5     -0.131686E-01      0.289596E-01      0.397692E+02
     6     -0.131687E-01      0.289597E-01      0.397692E+02
     7     -0.142698E-01     -0.280319E-01      0.397686E+02
     8     -0.142700E-01     -0.280321E-01      0.397686E+02
     9      0.514858E-01     -0.102851E-01     -0.336559E+02
    10      0.514859E-01     -0.102851E-01     -0.336559E+02
    11      0.506388E-01      0.537352E-02     -0.336562E+02
    12      0.506383E-01      0.537363E-02     -0.336563E+02
    13     -0.468823E-01      0.273539E-02     -0.334628E+02
    14     -0.468819E-01      0.273474E-02     -0.334627E+02
    15     -0.433671E-01     -0.471136E-02     -0.334655E+02
    16     -0.433669E-01     -0.471127E-02     -0.334655E+02
    17     -0.490738E-01      0.104266E-01     -0.417857E+02
    18     -0.490742E-01      0.104263E-01     -0.417857E+02
    19     -0.486372E-01     -0.101202E-01     -0.417845E+02
    20     -0.486380E-01     -0.101202E-01     -0.417845E+02
    21     -0.669773E-01      0.139149E+00     -0.417690E+02
    22     -0.669778E-01      0.139150E+00     -0.417690E+02
    23     -0.658897E-01     -0.141172E+00     -0.417663E+02
    24     -0.658899E-01     -0.141173E+00     -0.417663E+02
 -------------------------------------------------------------
 -------------------------------------------------------------


 -------------------------------------------------------------
  Absolute Chemical Shift tensors
 -------------------------------------------------------------
  UNSYMMETRIZED TENSORS 
 ion    1
       -181.332478         -5.481402         -1.774446
         -5.490609       -190.250163         -5.028630
         -1.277077         -4.555968       -184.948124
 ion    2
       -181.332511         -5.481402         -1.774432
         -5.490619       -190.250167         -5.028596
         -1.277082         -4.555936       -184.948191
 ion    3
       -180.571167          5.246774         -1.053932
          4.864374       -189.694492          6.174102
         -1.226973          5.079486       -184.027266
 ion    4
       -180.571149          5.246787         -1.053925
          4.864357       -189.694434          6.174123
         -1.226973          5.079505       -184.027271
 ion    5
       6381.293254         95.489625         -8.840132
       -104.171125       6316.516282         20.186727
         25.380869       -191.222699       6031.105502
 ion    6
       6381.294074         95.487743         -8.840442
       -104.173565       6316.518136         20.188998
         25.376302       -191.223734       6031.111153
 ion    7
       6505.218736        -53.662131         58.381855
        119.518990       6390.210059        -17.794887
         30.822561        205.667953       6036.543829
 ion    8
       6505.229087        -53.659437         58.387425
        119.519843       6390.224521        -17.790008
         30.828509        205.673912       6036.534508
 ion    9
        537.805777        -13.658920         66.801167
         -0.296387        559.353127         20.032548
         76.441028         -9.721382        188.331419
 ion   10
        537.803380        -13.659782         66.800655
         -0.296601        559.350717         20.032200
         76.440800         -9.721573        188.330608
 ion   11
        554.106256          4.674420         86.426501
         -3.198401        559.144372         -6.188625
         80.084227         17.134874        158.896550
 ion   12
        554.103226          4.674979         86.426186
         -3.197624        559.141027         -6.187983
         80.083990         17.135539        158.895811
 ion   13
        393.238580        199.194433        -60.592295
        184.471461        367.167271         53.218880
        -58.083830         58.570988        605.600375
 ion   14
        393.239382        199.194502        -60.592400
        184.471300        367.168035         53.218800
        -58.084207         58.570990        605.601442
 ion   15
        377.798420       -218.031185        -56.851885
       -187.662174        364.133012        -51.486787
        -48.930718        -51.585763        608.996137
 ion   16
        377.797475       -218.030391        -56.851520
       -187.661751        364.132188        -51.486744
        -48.930598        -51.585769        608.994382
 ion   17
         34.773745        -36.295174        -10.510494
        -31.026719         82.981320          1.468916
        -16.083018          4.429982        143.509089
 ion   18
         34.773505        -36.294542        -10.510696
        -31.026333         82.980594          1.469074
        -16.083035          4.430197        143.508835
 ion   19
         38.514778         41.306220        -11.729567
         30.543718         82.140729         -3.924493
        -11.951047         -0.753831        146.213752
 ion   20
         38.514470         41.306070        -11.729358
         30.543391         82.140483         -3.924113
        -11.950704         -0.753515        146.213020
 ion   21
         97.933265         24.213298        -35.290413
         26.087179         72.053804         35.172940
        -37.625586         49.489680        187.071703
 ion   22
         97.933127         24.212975        -35.290383
         26.086797         72.053773         35.173121
        -37.625706         49.489727        187.071984
 ion   23
         84.697936        -34.080688        -22.949040
        -32.183593         69.096105        -37.996658
        -31.765338        -43.368484        192.833285
 ion   24
         84.697765        -34.080321        -22.948848
        -32.182842         69.096048        -37.996575
        -31.765109        -43.368440        192.833123
  SYMMETRIZED TENSORS 
 ion    1
       -180.951826         -5.364091         -1.414184
         -5.177490       -189.972314         -5.601363
         -1.252026         -4.817724       -184.487713
 ion    2
       -180.951826         -5.364091         -1.414184
         -5.177490       -189.972314         -5.601363
         -1.252026         -4.817724       -184.487713
 ion    3
       -180.951826          5.364091         -1.414184
          5.177490       -189.972314          5.601363
         -1.252026          4.817724       -184.487713
 ion    4
       -180.951826          5.364091         -1.414184
          5.177490       -189.972314          5.601363
         -1.252026          4.817724       -184.487713
 ion    5
       6443.258788         74.574734         24.772177
       -111.845881       6353.367250         18.990155
         28.102060       -198.447075       6033.823748
 ion    6
       6443.258788         74.574734         24.772177
       -111.845881       6353.367250         18.990155
         28.102060       -198.447075       6033.823748
 ion    7
       6443.258788        -74.574734         24.772177
        111.845881       6353.367250        -18.990155
         28.102060        198.447075       6033.823748
 ion    8
       6443.258788        -74.574734         24.772177
        111.845881       6353.367250        -18.990155
         28.102060        198.447075       6033.823748
 ion    9
        545.954660         -9.167025         76.613627
          1.450759        559.247311         13.110339
         78.262511        -13.428342        173.613597
 ion   10
        545.954660         -9.167025         76.613627
          1.450759        559.247311         13.110339
         78.262511        -13.428342        173.613597
 ion   11
        545.954660          9.167025         76.613627
         -1.450759        559.247311        -13.110339
         78.262511         13.428342        173.613597
 ion   12
        545.954660          9.167025         76.613627
         -1.450759        559.247311        -13.110339
         78.262511         13.428342        173.613597
 ion   13
        385.518464        208.612628        -58.722025
        186.066671        365.650126         52.352803
        -53.507338         55.078378        607.298084
 ion   14
        385.518464        208.612628        -58.722025
        186.066671        365.650126         52.352803
        -53.507338         55.078378        607.298084
 ion   15
        385.518464       -208.612628        -58.722025
       -186.066671        365.650126        -52.352803
        -53.507338        -55.078378        607.298084
 ion   16
        385.518464       -208.612628        -58.722025
       -186.066671        365.650126        -52.352803
        -53.507338        -55.078378        607.298084
 ion   17
         36.644124        -38.800502        -11.120029
        -30.785040         82.560781          2.696649
        -14.016951          2.591881        144.861174
 ion   18
         36.644124        -38.800502        -11.120029
        -30.785040         82.560781          2.696649
        -14.016951          2.591881        144.861174
 ion   19
         36.644124         38.800502        -11.120029
         30.785040         82.560781         -2.696649
        -14.016951         -2.591881        144.861174
 ion   20
         36.644124         38.800502        -11.120029
         30.785040         82.560781         -2.696649
        -14.016951         -2.591881        144.861174
 ion   21
         91.315523         29.146821        -29.119671
         29.135103         70.574933         36.584823
        -34.695434         46.429083        189.952524
 ion   22
         91.315523         29.146821        -29.119671
         29.135103         70.574933         36.584823
        -34.695434         46.429083        189.952524
 ion   23
         91.315523        -29.146821        -29.119671
        -29.135103         70.574933        -36.584823
        -34.695434        -46.429083        189.952524
 ion   24
         91.315523        -29.146821        -29.119671
        -29.135103         70.574933        -36.584823
        -34.695434        -46.429083        189.952524
 -------------------------------------------------------------


 -------------------------------------------------------------
  G=0 CONTRIBUTION TO CHEMICAL SHIFT (field along BDIR) 
 -------------------------------------------------------------
   BDIR                X                 Y                 Z
 -------------------------------------------------------------
     1         -4.277323          0.000000          0.036810
     2          0.000000         -4.257225          0.000000
     3          0.035622          0.000000         -4.430581
 -------------------------------------------------------------

  Approximate magnetic susceptibility, pGv (10^-6 cm^3/mole) 
     1        -99.301332          0.000000          0.854576
     2          0.000000        -98.834743          0.000000
     3          0.826992          0.000000       -102.859335
 -------------------------------------------------------------


 --------------------------------------------------------------------------
  Core NMR properties        

  typ  El   Core shift (ppm)
 ----------------------------
    1  Na    -377.2811014
    2  Ta   -9212.7246451
    3  O     -271.0766935
    4  F     -306.4193758
 ----------------------------

  Core contribution to magnetic susceptibility:    -43.86  10^-6 cm^3/mole
 --------------------------------------------------------------------------


 ---------------------------------------------------------------------------------
  CSA tensor (J. Mason, Solid State Nucl. Magn. Reson. 2, 285 (1993))             
 ---------------------------------------------------------------------------------
             EXCLUDING G=0 CONTRIBUTION             INCLUDING G=0 CONTRIBUTION    
         -----------------------------------   -----------------------------------
  ATOM    ISO_SHIFT        SPAN        SKEW     ISO_SHIFT        SPAN        SKEW 
 ---------------------------------------------------------------------------------
  (absolute, valence only)                                                                  
     1    -185.1373     16.7580      0.5527     -189.4590     16.7750      0.5355
     2    -185.1373     16.7580      0.5527     -189.4590     16.7750      0.5355
     3    -185.1373     16.7580      0.5527     -189.4590     16.7750      0.5355
     4    -185.1373     16.7580      0.5527     -189.4590     16.7750      0.5355
     5    6276.8166    442.9917      0.6227     6272.4949    443.1450      0.6228
     6    6276.8166    442.9917      0.6227     6272.4949    443.1450      0.6228
     7    6276.8166    442.9917      0.6227     6272.4949    443.1450      0.6228
     8    6276.8166    442.9917      0.6227     6272.4949    443.1450      0.6228
     9     426.2719    406.1492      0.9609      421.9501    406.3229      0.9610
    10     426.2719    406.1492      0.9609      421.9501    406.3229      0.9610
    11     426.2719    406.1492      0.9609      421.9501    406.3229      0.9610
    12     426.2719    406.1492      0.9609      421.9501    406.3229      0.9610
    13     452.8222    456.7622      0.7887      448.5005    456.5880      0.7894
    14     452.8222    456.7622      0.7887      448.5005    456.5880      0.7894
    15     452.8222    456.7622      0.7887      448.5005    456.5880      0.7894
    16     452.8222    456.7622      0.7887      448.5005    456.5880      0.7894
    17      88.0220    129.9463      0.2720       83.7003    129.7800      0.2737
    18      88.0220    129.9463      0.2720       83.7003    129.7800      0.2737
    19      88.0220    129.9463      0.2720       83.7003    129.7800      0.2737
    20      88.0220    129.9463      0.2720       83.7003    129.7800      0.2737
    21     117.2810    174.7720     -0.0934      112.9593    174.6122     -0.0926
    22     117.2810    174.7720     -0.0934      112.9593    174.6122     -0.0926
    23     117.2810    174.7720     -0.0934      112.9593    174.6122     -0.0926
    24     117.2810    174.7720     -0.0934      112.9593    174.6122     -0.0926
 ---------------------------------------------------------------------------------
  (absolute, valence and core)                                                                  
     1    -562.4184     16.7580      0.5527     -568.6294     16.7750      0.5355
     2    -562.4184     16.7580      0.5527     -568.6294     16.7750      0.5355
     3    -562.4184     16.7580      0.5527     -568.6294     16.7750      0.5355
     4    -562.4184     16.7580      0.5527     -568.6294     16.7750      0.5355
     5   -2935.9080    442.9917      0.6227    -2942.1191    443.1450      0.6228
     6   -2935.9080    442.9917      0.6227    -2942.1191    443.1450      0.6228
     7   -2935.9080    442.9917      0.6227    -2942.1191    443.1450      0.6228
     8   -2935.9080    442.9917      0.6227    -2942.1191    443.1450      0.6228
     9     155.1952    406.1492      0.9609      148.9841    406.3229      0.9610
    10     155.1952    406.1492      0.9609      148.9841    406.3229      0.9610
    11     155.1952    406.1492      0.9609      148.9841    406.3229      0.9610
    12     155.1952    406.1492      0.9609      148.9841    406.3229      0.9610
    13     181.7455    456.7622      0.7887      175.5345    456.5880      0.7894
    14     181.7455    456.7622      0.7887      175.5345    456.5880      0.7894
    15     181.7455    456.7622      0.7887      175.5345    456.5880      0.7894
    16     181.7455    456.7622      0.7887      175.5345    456.5880      0.7894
    17    -218.3973    129.9463      0.2720     -224.6084    129.7800      0.2737
    18    -218.3973    129.9463      0.2720     -224.6084    129.7800      0.2737
    19    -218.3973    129.9463      0.2720     -224.6084    129.7800      0.2737
    20    -218.3973    129.9463      0.2720     -224.6084    129.7800      0.2737
    21    -189.1384    174.7720     -0.0934     -195.3494    174.6122     -0.0926
    22    -189.1384    174.7720     -0.0934     -195.3494    174.6122     -0.0926
    23    -189.1384    174.7720     -0.0934     -195.3494    174.6122     -0.0926
    24    -189.1384    174.7720     -0.0934     -195.3494    174.6122     -0.0926
 ---------------------------------------------------------------------------------
  IF SPAN.EQ.0, THEN SKEW IS ILL-DEFINED                                          
 ---------------------------------------------------------------------------------


 writing wavefunctions
     LOOP+:  cpu time37726.3868: real time37729.6386
    4ORBIT:  cpu time    0.0000: real time    0.0000

 total amount of memory used by VASP MPI-rank0   539692. kBytes
=======================================================================

   base      :      30000. kBytes
   nonlr-proj:       8554. kBytes
   fftplans  :      20492. kBytes
   grid      :      46129. kBytes
   one-center:        778. kBytes
   wavefun   :     433739. kBytes

  
  
 General timing and accounting informations for this job:
 ========================================================
  
                  Total CPU time used (sec):    37738.363
                            User time (sec):    37707.067
                          System time (sec):       31.297
                         Elapsed time (sec):    37741.808
  
                   Maximum memory used (kb):     2308584.
                   Average memory used (kb):          N/A
  
                          Minor page faults:       207167
                          Major page faults:            2
                 Voluntary context switches:         1512
