unknown system                          
           1
     8.099730    0.000000    0.000000
     0.000000    5.439130    0.000000
    -1.575373    0.000000    7.330788
   Na   Ta   O    F 
     4     4     8     8
Direct configuration=     1
   0.36745304  0.78977316  0.11019954
   0.63254693  0.21022684  0.88980046
   0.63254693  0.28977316  0.38980046
   0.36745304  0.71022684  0.61019954
   0.15900879  0.26305618  0.29843347
   0.84099124  0.73694385  0.70156656
   0.84099124  0.76305615  0.20156653
   0.15900879  0.23694382  0.79843344
   0.18671186  0.15900797  0.05483603
   0.81328811  0.84099206  0.94516395
   0.81328811  0.65900794  0.44516398
   0.18671186  0.34099203  0.55483605
   0.03375551  0.55563201  0.21060501
   0.96624448  0.44436799  0.78939497
   0.96624448  0.05563201  0.28939497
   0.03375551  0.94436799  0.71060503
   0.37417220  0.46756024  0.31304663
   0.62582780  0.53243976  0.68695340
   0.62582780  0.96756024  0.18695337
   0.37417220  0.03243976  0.81304660
   0.32296712  0.98422754  0.37944909
   0.67703288  0.01577246  0.62055088
   0.67703288  0.48422754  0.12055091
   0.32296712  0.51577246  0.87944912
