  24  24   0   0
  0.1368247E+02  0.8075001E-09  0.5440445E-09  0.7646864E-09  0.5000000E-15
   1.0000000000000000E-004
  CAR 
 unknown system                          
     13.05315537    -56.69674182  301      0.84692336      1.00000000
    -56.697  0.0000E+00  0.0000E+00
    -56.464  0.0000E+00  0.0000E+00
    -56.232  0.0000E+00  0.0000E+00
    -55.999  0.0000E+00  0.0000E+00
    -55.767  0.0000E+00  0.0000E+00
    -55.534  0.0000E+00  0.0000E+00
    -55.302  0.0000E+00  0.0000E+00
    -55.069  0.0000E+00  0.0000E+00
    -54.837  0.0000E+00  0.0000E+00
    -54.604  0.0000E+00  0.0000E+00
    -54.372  0.0000E+00  0.0000E+00
    -54.139  0.0000E+00  0.0000E+00
    -53.907  0.0000E+00  0.0000E+00
    -53.674  0.0000E+00  0.0000E+00
    -53.442  0.2007E+02  0.8000E+01
    -53.209  0.0000E+00  0.8000E+01
    -52.977  0.0000E+00  0.8000E+01
    -52.744  0.0000E+00  0.8000E+01
    -52.512  0.0000E+00  0.8000E+01
    -52.279  0.0000E+00  0.8000E+01
    -52.047  0.0000E+00  0.8000E+01
    -51.814  0.0000E+00  0.8000E+01
    -51.582  0.0000E+00  0.8000E+01
    -51.349  0.0000E+00  0.8000E+01
    -51.117  0.0000E+00  0.8000E+01
    -50.884  0.0000E+00  0.8000E+01
    -50.652  0.0000E+00  0.8000E+01
    -50.419  0.0000E+00  0.8000E+01
    -50.187  0.0000E+00  0.8000E+01
    -49.954  0.0000E+00  0.8000E+01
    -49.722  0.0000E+00  0.8000E+01
    -49.489  0.0000E+00  0.8000E+01
    -49.257  0.0000E+00  0.8000E+01
    -49.024  0.0000E+00  0.8000E+01
    -48.792  0.0000E+00  0.8000E+01
    -48.559  0.0000E+00  0.8000E+01
    -48.327  0.0000E+00  0.8000E+01
    -48.094  0.0000E+00  0.8000E+01
    -47.862  0.0000E+00  0.8000E+01
    -47.629  0.0000E+00  0.8000E+01
    -47.397  0.0000E+00  0.1600E+02
    -47.164  0.0000E+00  0.1600E+02
    -46.932  0.0000E+00  0.1600E+02
    -46.699  0.0000E+00  0.1600E+02
    -46.467  0.0000E+00  0.1600E+02
    -46.234  0.0000E+00  0.1600E+02
    -46.002  0.0000E+00  0.1600E+02
    -45.769  0.0000E+00  0.1600E+02
    -45.537  0.0000E+00  0.1600E+02
    -45.304  0.0000E+00  0.1600E+02
    -45.072  0.0000E+00  0.1600E+02
    -44.839  0.0000E+00  0.1600E+02
    -44.607  0.0000E+00  0.1600E+02
    -44.374  0.0000E+00  0.1600E+02
    -44.142  0.0000E+00  0.1600E+02
    -43.909  0.0000E+00  0.1600E+02
    -43.677  0.0000E+00  0.1600E+02
    -43.444  0.0000E+00  0.1600E+02
    -43.212  0.0000E+00  0.1600E+02
    -42.979  0.0000E+00  0.1600E+02
    -42.747  0.0000E+00  0.1600E+02
    -42.514  0.0000E+00  0.1600E+02
    -42.282  0.0000E+00  0.1600E+02
    -42.049  0.0000E+00  0.1600E+02
    -41.817  0.0000E+00  0.1600E+02
    -41.584  0.0000E+00  0.1600E+02
    -41.352  0.0000E+00  0.1600E+02
    -41.119  0.0000E+00  0.1600E+02
    -40.887  0.0000E+00  0.1600E+02
    -40.654  0.0000E+00  0.1600E+02
    -40.422  0.0000E+00  0.1600E+02
    -40.189  0.0000E+00  0.1600E+02
    -39.957  0.0000E+00  0.1600E+02
    -39.724  0.0000E+00  0.1600E+02
    -39.492  0.0000E+00  0.1600E+02
    -39.259  0.0000E+00  0.1600E+02
    -39.027  0.0000E+00  0.1600E+02
    -38.794  0.0000E+00  0.1600E+02
    -38.562  0.0000E+00  0.1600E+02
    -38.329  0.0000E+00  0.1600E+02
    -38.097  0.0000E+00  0.1600E+02
    -37.864  0.0000E+00  0.1600E+02
    -37.632  0.0000E+00  0.1600E+02
    -37.399  0.0000E+00  0.1600E+02
    -37.167  0.0000E+00  0.1600E+02
    -36.934  0.0000E+00  0.1600E+02
    -36.702  0.0000E+00  0.1600E+02
    -36.469  0.0000E+00  0.1600E+02
    -36.237  0.0000E+00  0.1600E+02
    -36.004  0.0000E+00  0.1600E+02
    -35.772  0.0000E+00  0.1600E+02
    -35.539  0.0000E+00  0.1600E+02
    -35.307  0.0000E+00  0.1600E+02
    -35.074  0.0000E+00  0.1600E+02
    -34.842  0.0000E+00  0.1600E+02
    -34.609  0.0000E+00  0.1600E+02
    -34.377  0.0000E+00  0.1600E+02
    -34.144  0.0000E+00  0.1600E+02
    -33.912  0.0000E+00  0.1600E+02
    -33.679  0.0000E+00  0.1600E+02
    -33.447  0.0000E+00  0.1600E+02
    -33.214  0.0000E+00  0.1600E+02
    -32.982  0.0000E+00  0.1600E+02
    -32.749  0.0000E+00  0.1600E+02
    -32.517  0.0000E+00  0.1600E+02
    -32.284  0.0000E+00  0.1600E+02
    -32.052  0.0000E+00  0.1600E+02
    -31.819  0.0000E+00  0.1600E+02
    -31.587  0.0000E+00  0.1600E+02
    -31.354  0.0000E+00  0.1600E+02
    -31.122  0.0000E+00  0.1600E+02
    -30.889  0.0000E+00  0.1600E+02
    -30.657  0.0000E+00  0.1600E+02
    -30.424  0.0000E+00  0.1600E+02
    -30.192  0.0000E+00  0.1600E+02
    -29.959  0.0000E+00  0.1600E+02
    -29.727  0.1717E+02  0.2799E+02
    -29.494  0.0000E+00  0.4000E+02
    -29.262  0.0000E+00  0.4000E+02
    -29.029  0.0000E+00  0.4000E+02
    -28.797  0.0000E+00  0.4000E+02
    -28.564  0.0000E+00  0.4000E+02
    -28.332  0.0000E+00  0.4000E+02
    -28.099  0.0000E+00  0.4000E+02
    -27.867  0.0000E+00  0.4000E+02
    -27.634  0.0000E+00  0.4000E+02
    -27.402  0.0000E+00  0.4000E+02
    -27.169  0.0000E+00  0.4000E+02
    -26.937  0.0000E+00  0.4000E+02
    -26.704  0.0000E+00  0.4000E+02
    -26.472  0.0000E+00  0.4000E+02
    -26.239  0.0000E+00  0.4000E+02
    -26.007  0.0000E+00  0.4000E+02
    -25.774  0.0000E+00  0.4000E+02
    -25.542  0.0000E+00  0.4000E+02
    -25.309  0.0000E+00  0.4000E+02
    -25.077  0.0000E+00  0.4000E+02
    -24.844  0.0000E+00  0.4000E+02
    -24.612  0.0000E+00  0.4000E+02
    -24.379  0.0000E+00  0.4000E+02
    -24.147  0.0000E+00  0.4000E+02
    -23.914  0.0000E+00  0.4000E+02
    -23.682  0.0000E+00  0.4000E+02
    -23.449  0.0000E+00  0.4000E+02
    -23.217  0.0000E+00  0.4000E+02
    -22.984  0.0000E+00  0.4000E+02
    -22.752  0.0000E+00  0.4000E+02
    -22.519  0.0000E+00  0.4000E+02
    -22.287  0.0000E+00  0.4000E+02
    -22.054  0.0000E+00  0.4000E+02
    -21.822  0.0000E+00  0.4000E+02
    -21.589  0.0000E+00  0.4000E+02
    -21.357  0.0000E+00  0.4000E+02
    -21.124  0.0000E+00  0.4000E+02
    -20.892  0.0000E+00  0.4000E+02
    -20.659  0.0000E+00  0.4000E+02
    -20.427  0.3635E-02  0.4000E+02
    -20.194  0.1171E+02  0.5214E+02
    -19.962  0.0000E+00  0.5600E+02
    -19.729  0.0000E+00  0.5600E+02
    -19.497  0.8955E-03  0.5600E+02
    -19.264  0.2756E+02  0.7707E+02
    -19.032  0.0000E+00  0.8000E+02
    -18.799  0.0000E+00  0.8000E+02
    -18.567  0.0000E+00  0.8000E+02
    -18.334  0.0000E+00  0.8000E+02
    -18.102  0.0000E+00  0.8000E+02
    -17.869  0.0000E+00  0.8000E+02
    -17.637  0.0000E+00  0.8000E+02
    -17.404  0.0000E+00  0.8000E+02
    -17.172  0.0000E+00  0.8000E+02
    -16.939  0.0000E+00  0.8000E+02
    -16.707  0.0000E+00  0.8000E+02
    -16.474  0.0000E+00  0.8000E+02
    -16.242  0.0000E+00  0.8000E+02
    -16.009  0.0000E+00  0.8000E+02
    -15.777  0.0000E+00  0.8000E+02
    -15.544  0.0000E+00  0.8000E+02
    -15.312  0.3936E+01  0.8158E+02
    -15.079  0.1968E+02  0.8858E+02
    -14.847  0.0000E+00  0.9200E+02
    -14.614  0.2415E+01  0.9256E+02
    -14.382  0.0000E+00  0.9400E+02
    -14.149  0.0000E+00  0.9600E+02
    -13.917  0.0000E+00  0.9600E+02
    -13.684  0.0000E+00  0.9600E+02
    -13.452  0.0000E+00  0.9600E+02
    -13.219  0.0000E+00  0.9600E+02
    -12.987  0.0000E+00  0.9600E+02
    -12.754  0.0000E+00  0.9600E+02
    -12.522  0.0000E+00  0.9600E+02
    -12.289  0.0000E+00  0.9600E+02
    -12.057  0.0000E+00  0.9600E+02
    -11.824  0.0000E+00  0.9600E+02
    -11.592  0.0000E+00  0.9600E+02
    -11.359  0.0000E+00  0.9600E+02
    -11.127  0.0000E+00  0.9600E+02
    -10.894  0.0000E+00  0.9600E+02
    -10.662  0.0000E+00  0.9600E+02
    -10.429  0.0000E+00  0.9600E+02
    -10.197  0.0000E+00  0.9600E+02
     -9.964  0.0000E+00  0.9600E+02
     -9.732  0.0000E+00  0.9600E+02
     -9.499  0.0000E+00  0.9600E+02
     -9.267  0.0000E+00  0.9600E+02
     -9.034  0.0000E+00  0.9600E+02
     -8.802  0.0000E+00  0.9600E+02
     -8.569  0.0000E+00  0.9600E+02
     -8.337  0.0000E+00  0.9600E+02
     -8.104  0.0000E+00  0.9600E+02
     -7.872  0.0000E+00  0.9600E+02
     -7.639  0.0000E+00  0.9600E+02
     -7.407  0.0000E+00  0.9600E+02
     -7.174  0.0000E+00  0.9600E+02
     -6.942  0.0000E+00  0.9600E+02
     -6.709  0.0000E+00  0.9600E+02
     -6.477  0.0000E+00  0.9600E+02
     -6.244  0.0000E+00  0.9600E+02
     -6.012  0.0000E+00  0.9600E+02
     -5.779  0.0000E+00  0.9600E+02
     -5.547  0.0000E+00  0.9600E+02
     -5.314  0.0000E+00  0.9600E+02
     -5.082  0.0000E+00  0.9600E+02
     -4.849  0.0000E+00  0.9600E+02
     -4.617  0.0000E+00  0.9600E+02
     -4.384  0.0000E+00  0.9600E+02
     -4.152  0.0000E+00  0.9600E+02
     -3.919  0.0000E+00  0.9600E+02
     -3.687  0.1057E+02  0.1006E+03
     -3.454  0.5922E+01  0.1031E+03
     -3.222  0.2972E+01  0.1057E+03
     -2.989  0.1001E+02  0.1105E+03
     -2.757  0.6575E+01  0.1145E+03
     -2.524  0.1072E+02  0.1222E+03
     -2.292  0.7988E+01  0.1274E+03
     -2.059  0.7493E+01  0.1325E+03
     -1.827  0.5275E+01  0.1378E+03
     -1.594  0.3158E+01  0.1394E+03
     -1.362  0.1343E+02  0.1462E+03
     -1.129  0.1166E+02  0.1534E+03
     -0.897  0.9027E+01  0.1607E+03
     -0.664  0.9818E+01  0.1689E+03
     -0.432  0.3631E+01  0.1711E+03
     -0.199  0.7288E+01  0.1749E+03
      0.033  0.3740E+01  0.1802E+03
      0.266  0.5372E+01  0.1844E+03
      0.498  0.5860E+01  0.1877E+03
      0.731  0.1038E+02  0.1911E+03
      0.963  0.0000E+00  0.1920E+03
      1.196  0.0000E+00  0.1920E+03
      1.428  0.0000E+00  0.1920E+03
      1.661  0.0000E+00  0.1920E+03
      1.893  0.0000E+00  0.1920E+03
      2.126  0.0000E+00  0.1920E+03
      2.358  0.0000E+00  0.1920E+03
      2.591  0.0000E+00  0.1920E+03
      2.823  0.0000E+00  0.1920E+03
      3.056  0.0000E+00  0.1920E+03
      3.288  0.0000E+00  0.1920E+03
      3.521  0.0000E+00  0.1920E+03
      3.753  0.0000E+00  0.1920E+03
      3.986  0.0000E+00  0.1920E+03
      4.218  0.5735E+01  0.1933E+03
      4.451  0.3679E+01  0.1952E+03
      4.683  0.4242E+01  0.1970E+03
      4.916  0.4301E+01  0.1993E+03
      5.148  0.2592E-01  0.2000E+03
      5.381  0.5294E+01  0.2035E+03
      5.613  0.7219E+00  0.2063E+03
      5.846  0.2795E+01  0.2084E+03
      6.078  0.3012E+01  0.2112E+03
      6.311  0.7409E+01  0.2137E+03
      6.543  0.1734E+01  0.2157E+03
      6.776  0.0000E+00  0.2160E+03
      7.008  0.0000E+00  0.2160E+03
      7.241  0.6120E+00  0.2161E+03
      7.473  0.9776E-01  0.2162E+03
      7.706  0.3072E+00  0.2167E+03
      7.938  0.1273E+01  0.2173E+03
      8.171  0.5276E+01  0.2199E+03
      8.403  0.2151E+01  0.2214E+03
      8.636  0.2807E+01  0.2232E+03
      8.868  0.2291E+01  0.2243E+03
      9.101  0.3895E+01  0.2267E+03
      9.333  0.1354E+01  0.2277E+03
      9.566  0.1075E+01  0.2291E+03
      9.798  0.2439E+01  0.2299E+03
     10.031  0.0000E+00  0.2300E+03
     10.263  0.0000E+00  0.2300E+03
     10.496  0.0000E+00  0.2300E+03
     10.728  0.0000E+00  0.2300E+03
     10.961  0.0000E+00  0.2300E+03
     11.193  0.0000E+00  0.2300E+03
     11.426  0.0000E+00  0.2300E+03
     11.658  0.0000E+00  0.2300E+03
     11.891  0.0000E+00  0.2300E+03
     12.123  0.0000E+00  0.2300E+03
     12.356  0.0000E+00  0.2300E+03
     12.588  0.0000E+00  0.2300E+03
     12.821  0.0000E+00  0.2300E+03
     13.053  0.0000E+00  0.2300E+03
