       N       E                     dE             d eps       ncg     rms          rms(c)
DAV:   1     0.351333695815E+04    0.35133E+04   -0.10324E+05  5560   0.191E+03
DAV:   2     0.433096637757E+03   -0.30802E+04   -0.28906E+04  5532   0.800E+02
DAV:   3    -0.194170080541E+03   -0.62727E+03   -0.61389E+03  8791   0.357E+02
DAV:   4    -0.230257255404E+03   -0.36087E+02   -0.35880E+02  8592   0.105E+02
DAV:   5    -0.231232890615E+03   -0.97564E+00   -0.97059E+00  8736   0.179E+01    0.499E+01
DAV:   6    -0.183455401083E+03    0.47777E+02   -0.20030E+02  9296   0.830E+01    0.186E+01
DAV:   7    -0.183076941184E+03    0.37846E+00   -0.32796E+01  8048   0.303E+01    0.400E+01
DAV:   8    -0.183480265437E+03   -0.40332E+00   -0.19427E+00  8736   0.790E+00    0.505E+01
DAV:   9    -0.183266783840E+03    0.21348E+00   -0.31171E+00  9328   0.137E+01    0.198E+01
DAV:  10    -0.182875578051E+03    0.39121E+00   -0.63248E-01  9504   0.755E+00    0.230E+01
DAV:  11    -0.182817451057E+03    0.58127E-01   -0.40585E-01  7904   0.255E+00    0.169E+01
DAV:  12    -0.182838833774E+03   -0.21383E-01   -0.20701E-02  8576   0.111E+00    0.146E+01
DAV:  13    -0.182828590235E+03    0.10244E-01   -0.87393E-03  8736   0.617E-01    0.811E+00
DAV:  14    -0.182803627840E+03    0.24962E-01   -0.28861E-02  9112   0.986E-01    0.530E+00
DAV:  15    -0.182797389805E+03    0.62380E-02   -0.11256E-02  8968   0.458E-01    0.339E+00
DAV:  16    -0.182793441590E+03    0.39482E-02   -0.44691E-03  9152   0.329E-01    0.261E+00
DAV:  17    -0.182791804199E+03    0.16374E-02   -0.31912E-03  8840   0.244E-01    0.148E+00
DAV:  18    -0.182790892404E+03    0.91179E-03   -0.29550E-03  8896   0.265E-01    0.469E-01
DAV:  19    -0.182790900932E+03   -0.85275E-05   -0.46684E-04  8416   0.109E-01    0.154E-01
DAV:  20    -0.182790894866E+03    0.60657E-05   -0.60792E-05  8632   0.378E-02    0.820E-02
DAV:  21    -0.182790896839E+03   -0.19735E-05   -0.66167E-06  8656   0.157E-02    0.765E-02
DAV:  22    -0.182790895673E+03    0.11659E-05   -0.21770E-06  8360   0.945E-03    0.390E-02
DAV:  23    -0.182790894735E+03    0.93852E-06   -0.22712E-06  9016   0.781E-03    0.265E-02
DAV:  24    -0.182790894789E+03   -0.54235E-07   -0.34806E-07  7624   0.287E-03    0.159E-02
DAV:  25    -0.182790894786E+03    0.30595E-08   -0.44710E-08  5368   0.127E-03
   1 F= -.18279089E+03 E0= -.18279089E+03  d E =-.477776E-29
DAV:   1    -0.539997504352E+04   -0.54000E+04   -0.16421E+00  6804   0.623E+00
DAV:   2    -0.539998955313E+04   -0.14510E-01   -0.14509E-01  7864   0.181E+00
DAV:   3    -0.539999010008E+04   -0.54695E-03   -0.54694E-03  8536   0.365E-01
DAV:   4    -0.539999014203E+04   -0.41952E-04   -0.41951E-04  8544   0.799E-02
DAV:   5    -0.539999014574E+04   -0.37062E-05   -0.37063E-05  8792   0.249E-02
DAV:   6    -0.539999014612E+04   -0.38627E-06   -0.38617E-06  7288   0.657E-03
DAV:   7    -0.539999014617E+04   -0.42534E-07   -0.42655E-07  6304   0.237E-03
DAV:   8    -0.539999014617E+04   -0.41782E-08   -0.42031E-08  5288   0.795E-04
       N       E                     dE             d eps       ncg     rms
RMM:   1    -0.500512808539E+03   -0.50051E+03   -0.27805E+03  5602   0.497E+02
RMM:   2    -0.633996416913E+03   -0.13348E+03   -0.79509E+02  9881   0.688E+01
RMM:   3    -0.656429327964E+03   -0.22433E+02   -0.10555E+02 10834   0.181E+01
RMM:   4    -0.659993995761E+03   -0.35647E+01   -0.13188E+01 10918   0.594E+00
RMM:   5    -0.660554539654E+03   -0.56054E+00   -0.21206E+00 11382   0.219E+00
RMM:   6    -0.660642932431E+03   -0.88393E-01   -0.36151E-01 11051   0.808E-01
RMM:   7    -0.660654395557E+03   -0.11463E-01   -0.39151E-02 11596   0.289E-01
RMM:   8    -0.660656056149E+03   -0.16606E-02   -0.76994E-03 11471   0.109E-01
RMM:   9    -0.660656294033E+03   -0.23788E-03   -0.78969E-04 11616   0.375E-02
RMM:  10    -0.660656332182E+03   -0.38150E-04   -0.18728E-04 10776   0.145E-02
RMM:  11    -0.660656339375E+03   -0.71930E-05   -0.19386E-05  9038   0.526E-03
RMM:  12    -0.660656340456E+03   -0.10810E-05   -0.58058E-06  7983   0.222E-03
RMM:  13    -0.660656340653E+03   -0.19625E-06   -0.51512E-07  6589   0.843E-04
RMM:  14    -0.660656340679E+03   -0.26754E-07   -0.13946E-07  4723   0.426E-04
RMM:  15    -0.660656340685E+03   -0.51594E-08   -0.15714E-08  3609   0.272E-04
DAV:   1    -0.540005791774E+04   -0.54001E+04   -0.25383E-07  7088   0.221E-03
DAV:   2    -0.540005791774E+04   -0.16753E-08   -0.16152E-08  3656   0.862E-04
       N       E                     dE             d eps       ncg     rms
RMM:   1    -0.500532822385E+03   -0.50053E+03   -0.27803E+03  5602   0.497E+02
RMM:   2    -0.634007869831E+03   -0.13348E+03   -0.79488E+02  9879   0.688E+01
RMM:   3    -0.656480540269E+03   -0.22473E+02   -0.10602E+02 10837   0.181E+01
RMM:   4    -0.660017894819E+03   -0.35374E+01   -0.13043E+01 10913   0.592E+00
RMM:   5    -0.660574360811E+03   -0.55647E+00   -0.21290E+00 11361   0.219E+00
RMM:   6    -0.660662713057E+03   -0.88352E-01   -0.35920E-01 11067   0.809E-01
RMM:   7    -0.660674160533E+03   -0.11447E-01   -0.39290E-02 11567   0.290E-01
RMM:   8    -0.660675807038E+03   -0.16465E-02   -0.74967E-03 11461   0.109E-01
RMM:   9    -0.660676036560E+03   -0.22952E-03   -0.76951E-04 11611   0.373E-02
RMM:  10    -0.660676072992E+03   -0.36433E-04   -0.17990E-04 10772   0.144E-02
RMM:  11    -0.660676079949E+03   -0.69562E-05   -0.19259E-05  9111   0.522E-03
RMM:  12    -0.660676081002E+03   -0.10529E-05   -0.56482E-06  7987   0.219E-03
RMM:  13    -0.660676081193E+03   -0.19115E-06   -0.50942E-07  6611   0.835E-04
RMM:  14    -0.660676081219E+03   -0.26049E-07   -0.13708E-07  4725   0.423E-04
RMM:  15    -0.660676081224E+03   -0.50196E-08   -0.14529E-08  3597   0.269E-04
DAV:   1    -0.540011041218E+04   -0.54001E+04   -0.16416E+00  6788   0.623E+00
DAV:   2    -0.540012495582E+04   -0.14544E-01   -0.14543E-01  7840   0.182E+00
DAV:   3    -0.540012551026E+04   -0.55444E-03   -0.55444E-03  8568   0.369E-01
DAV:   4    -0.540012555242E+04   -0.42157E-04   -0.42156E-04  8576   0.799E-02
DAV:   5    -0.540012555608E+04   -0.36636E-05   -0.36635E-05  8824   0.249E-02
DAV:   6    -0.540012555646E+04   -0.37833E-06   -0.37823E-06  7232   0.646E-03
DAV:   7    -0.540012555650E+04   -0.42689E-07   -0.42644E-07  6200   0.234E-03
DAV:   8    -0.540012555651E+04   -0.34397E-08   -0.35990E-08  5168   0.769E-04
       N       E                     dE             d eps       ncg     rms
RMM:   1    -0.500303258756E+03   -0.50030E+03   -0.27782E+03  5600   0.497E+02
RMM:   2    -0.633912697455E+03   -0.13361E+03   -0.79530E+02  9877   0.688E+01
RMM:   3    -0.656497279663E+03   -0.22585E+02   -0.10651E+02 10848   0.181E+01
RMM:   4    -0.660026013420E+03   -0.35287E+01   -0.12967E+01 10906   0.591E+00
RMM:   5    -0.660581766205E+03   -0.55575E+00   -0.21336E+00 11386   0.219E+00
RMM:   6    -0.660670177894E+03   -0.88412E-01   -0.35517E-01 11033   0.806E-01
RMM:   7    -0.660681568977E+03   -0.11391E-01   -0.39586E-02 11591   0.290E-01
RMM:   8    -0.660683213220E+03   -0.16442E-02   -0.73902E-03 11439   0.108E-01
RMM:   9    -0.660683441174E+03   -0.22795E-03   -0.78149E-04 11618   0.372E-02
RMM:  10    -0.660683477070E+03   -0.35895E-04   -0.17698E-04 10714   0.143E-02
RMM:  11    -0.660683483932E+03   -0.68619E-05   -0.19129E-05  9140   0.521E-03
RMM:  12    -0.660683484957E+03   -0.10255E-05   -0.54644E-06  7957   0.217E-03
RMM:  13    -0.660683485147E+03   -0.18974E-06   -0.51194E-07  6622   0.835E-04
RMM:  14    -0.660683485173E+03   -0.26028E-07   -0.13661E-07  4699   0.422E-04
RMM:  15    -0.660683485178E+03   -0.49665E-08   -0.14840E-08  3620   0.270E-04
DAV:   1    -0.539998949290E+04   -0.54000E+04   -0.16361E+00  6727   0.627E+00
DAV:   2    -0.540000473557E+04   -0.15243E-01   -0.15242E-01  7840   0.182E+00
DAV:   3    -0.540000530843E+04   -0.57286E-03   -0.57285E-03  8560   0.367E-01
DAV:   4    -0.540000534999E+04   -0.41553E-04   -0.41551E-04  8512   0.785E-02
DAV:   5    -0.540000535375E+04   -0.37639E-05   -0.37636E-05  8952   0.248E-02
DAV:   6    -0.540000535412E+04   -0.37504E-06   -0.37521E-06  7256   0.622E-03
DAV:   7    -0.540000535417E+04   -0.43251E-07   -0.43271E-07  6168   0.235E-03
DAV:   8    -0.540000535417E+04   -0.53560E-08   -0.51493E-08  5192   0.797E-04
       N       E                     dE             d eps       ncg     rms
RMM:   1    -0.512496799584E+03   -0.51250E+03   -0.25991E+03  5658   0.471E+02
RMM:   2    -0.636068625503E+03   -0.12357E+03   -0.73656E+02 10067   0.681E+01
RMM:   3    -0.656373609750E+03   -0.20305E+02   -0.11395E+02 10877   0.181E+01
RMM:   4    -0.660168455917E+03   -0.37948E+01   -0.14126E+01 11041   0.609E+00
RMM:   5    -0.660807956994E+03   -0.63950E+00   -0.28369E+00 11401   0.230E+00
RMM:   6    -0.660901080690E+03   -0.93124E-01   -0.33372E-01 11105   0.815E-01
RMM:   7    -0.660915165565E+03   -0.14085E-01   -0.58566E-02 11625   0.312E-01
RMM:   8    -0.660917011121E+03   -0.18456E-02   -0.73649E-03 11504   0.112E-01
RMM:   9    -0.660917277446E+03   -0.26633E-03   -0.10524E-03 11800   0.399E-02
RMM:  10    -0.660917318531E+03   -0.41084E-04   -0.19069E-04 10745   0.147E-02
RMM:  11    -0.660917325694E+03   -0.71628E-05   -0.27235E-05  9520   0.543E-03
RMM:  12    -0.660917326801E+03   -0.11068E-05   -0.51129E-06  7849   0.217E-03
RMM:  13    -0.660917327000E+03   -0.19961E-06   -0.75761E-07  6736   0.857E-04
RMM:  14    -0.660917327029E+03   -0.29085E-07   -0.12931E-07  4884   0.417E-04
RMM:  15    -0.660917327034E+03   -0.52252E-08   -0.19818E-08  3603   0.265E-04
DAV:   1    -0.540005791774E+04   -0.54001E+04   -0.25383E-07  7088   0.221E-03
DAV:   2    -0.540005791774E+04   -0.16144E-08   -0.16152E-08  3656   0.862E-04
       N       E                     dE             d eps       ncg     rms
RMM:   1    -0.512322321794E+03   -0.51232E+03   -0.25981E+03  5656   0.471E+02
RMM:   2    -0.636065981536E+03   -0.12374E+03   -0.73726E+02 10071   0.681E+01
RMM:   3    -0.656355638609E+03   -0.20290E+02   -0.11390E+02 10876   0.181E+01
RMM:   4    -0.660135237990E+03   -0.37796E+01   -0.14039E+01 11040   0.608E+00
RMM:   5    -0.660774182450E+03   -0.63894E+00   -0.28465E+00 11375   0.230E+00
RMM:   6    -0.660866902338E+03   -0.92720E-01   -0.33225E-01 11097   0.814E-01
RMM:   7    -0.660880909435E+03   -0.14007E-01   -0.58629E-02 11629   0.313E-01
RMM:   8    -0.660882745519E+03   -0.18361E-02   -0.72203E-03 11478   0.112E-01
RMM:   9    -0.660883010333E+03   -0.26481E-03   -0.10494E-03 11801   0.398E-02
RMM:  10    -0.660883051069E+03   -0.40736E-04   -0.18811E-04 10780   0.147E-02
RMM:  11    -0.660883058257E+03   -0.71885E-05   -0.26797E-05  9509   0.541E-03
RMM:  12    -0.660883059386E+03   -0.11287E-05   -0.54139E-06  7879   0.220E-03
RMM:  13    -0.660883059595E+03   -0.20872E-06   -0.76427E-07  6679   0.855E-04
RMM:  14    -0.660883059624E+03   -0.29191E-07   -0.13176E-07  4879   0.418E-04
RMM:  15    -0.660883059629E+03   -0.53999E-08   -0.21247E-08  3573   0.267E-04
DAV:   1    -0.540009435590E+04   -0.54001E+04   -0.16350E+00  6668   0.627E+00
DAV:   2    -0.540010974111E+04   -0.15385E-01   -0.15385E-01  7880   0.184E+00
DAV:   3    -0.540011030267E+04   -0.56156E-03   -0.56156E-03  8544   0.368E-01
DAV:   4    -0.540011034402E+04   -0.41347E-04   -0.41346E-04  8448   0.783E-02
DAV:   5    -0.540011034792E+04   -0.38996E-05   -0.38994E-05  8936   0.254E-02
DAV:   6    -0.540011034831E+04   -0.39349E-06   -0.39330E-06  7240   0.643E-03
DAV:   7    -0.540011034836E+04   -0.47418E-07   -0.47435E-07  6280   0.250E-03
DAV:   8    -0.540011034836E+04   -0.55225E-08   -0.56092E-08  5320   0.832E-04
       N       E                     dE             d eps       ncg     rms
RMM:   1    -0.511867048592E+03   -0.51187E+03   -0.25944E+03  5651   0.471E+02
RMM:   2    -0.635957490625E+03   -0.12409E+03   -0.73843E+02 10072   0.682E+01
RMM:   3    -0.656300451635E+03   -0.20343E+02   -0.11452E+02 10877   0.181E+01
RMM:   4    -0.660086106848E+03   -0.37857E+01   -0.14025E+01 11026   0.609E+00
RMM:   5    -0.660727109180E+03   -0.64100E+00   -0.28790E+00 11405   0.231E+00
RMM:   6    -0.660819884601E+03   -0.92775E-01   -0.32933E-01 11057   0.813E-01
RMM:   7    -0.660833908723E+03   -0.14024E-01   -0.58822E-02 11654   0.313E-01
RMM:   8    -0.660835749857E+03   -0.18411E-02   -0.72350E-03 11475   0.111E-01
RMM:   9    -0.660836016438E+03   -0.26658E-03   -0.10560E-03 11813   0.398E-02
RMM:  10    -0.660836057449E+03   -0.41011E-04   -0.19074E-04 10782   0.147E-02
RMM:  11    -0.660836064663E+03   -0.72138E-05   -0.27134E-05  9553   0.540E-03
RMM:  12    -0.660836065772E+03   -0.11091E-05   -0.52625E-06  7829   0.217E-03
RMM:  13    -0.660836065979E+03   -0.20677E-06   -0.78253E-07  6696   0.855E-04
RMM:  14    -0.660836066009E+03   -0.30603E-07   -0.14090E-07  4879   0.422E-04
RMM:  15    -0.660836066015E+03   -0.58390E-08   -0.23669E-08  3586   0.269E-04
       N       E                     dE             d eps       ncg     rms
RLQ:   1    -0.162187384009E+02   -0.16219E+02   -0.17348E+03  5520   0.413E+02
RLQ:   2    -0.196860208237E+02   -0.34673E+01   -0.25222E+01 10405   0.123E+01
RLQ:   3    -0.208066516877E+02   -0.11206E+01   -0.52144E+00 10679   0.328E+00
RLQ:   4    -0.209493009333E+02   -0.14265E+00   -0.54001E-01 11230   0.103E+00
RLQ:   5    -0.209719350555E+02   -0.22634E-01   -0.87793E-02 11146   0.370E-01
RLQ:   6    -0.209748073321E+02   -0.28723E-02   -0.10947E-02 10688   0.133E-01
RLQ:   7    -0.209752327093E+02   -0.42538E-03   -0.19708E-03 10893   0.514E-02
RLQ:   8    -0.209752954328E+02   -0.62723E-04   -0.22898E-04 10472   0.180E-02
RLQ:   9    -0.209753041817E+02   -0.87489E-05   -0.40994E-05  9832   0.684E-03
RLQ:  10    -0.209753055553E+02   -0.13736E-05   -0.56471E-06  8390   0.256E-03
RLQ:  11    -0.209753057754E+02   -0.22008E-06   -0.87969E-07  7516   0.102E-03
RLQ:  12    -0.209753058094E+02   -0.34008E-07   -0.16068E-07  5486   0.460E-04
RLQ:  13    -0.209753058148E+02   -0.53669E-08   -0.17388E-08  3749   0.274E-04
DAV:   1    -0.540005362974E+04   -0.54001E+04   -0.16568E+00  6637   0.622E+00
DAV:   2    -0.540006849701E+04   -0.14867E-01   -0.14867E-01  7880   0.183E+00
DAV:   3    -0.540006907332E+04   -0.57631E-03   -0.57630E-03  8520   0.376E-01
DAV:   4    -0.540006911746E+04   -0.44139E-04   -0.44138E-04  8536   0.830E-02
DAV:   5    -0.540006912156E+04   -0.40996E-05   -0.40993E-05  8704   0.258E-02
DAV:   6    -0.540006912196E+04   -0.40408E-06   -0.40414E-06  7496   0.674E-03
DAV:   7    -0.540006912201E+04   -0.42936E-07   -0.42945E-07  6160   0.232E-03
DAV:   8    -0.540006912201E+04   -0.45784E-08   -0.45884E-08  5208   0.798E-04
       N       E                     dE             d eps       ncg     rms
RMM:   1    -0.500360421605E+03   -0.50036E+03   -0.27798E+03  5601   0.497E+02
RMM:   2    -0.633851235546E+03   -0.13349E+03   -0.79477E+02  9884   0.688E+01
RMM:   3    -0.656290512733E+03   -0.22439E+02   -0.10547E+02 10846   0.181E+01
RMM:   4    -0.659810388186E+03   -0.35199E+01   -0.12994E+01 10910   0.591E+00
RMM:   5    -0.660364311774E+03   -0.55392E+00   -0.21064E+00 11377   0.219E+00
RMM:   6    -0.660452870581E+03   -0.88559E-01   -0.36375E-01 11069   0.809E-01
RMM:   7    -0.660464311115E+03   -0.11441E-01   -0.38559E-02 11569   0.288E-01
RMM:   8    -0.660465950868E+03   -0.16398E-02   -0.75566E-03 11465   0.109E-01
RMM:   9    -0.660466181623E+03   -0.23075E-03   -0.76275E-04 11616   0.371E-02
RMM:  10    -0.660466218024E+03   -0.36401E-04   -0.18042E-04 10740   0.143E-02
RMM:  11    -0.660466224935E+03   -0.69110E-05   -0.18826E-05  9095   0.520E-03
RMM:  12    -0.660466225970E+03   -0.10353E-05   -0.55935E-06  7961   0.219E-03
RMM:  13    -0.660466226160E+03   -0.19058E-06   -0.51061E-07  6555   0.833E-04
RMM:  14    -0.660466226186E+03   -0.25740E-07   -0.13430E-07  4717   0.423E-04
RMM:  15    -0.660466226191E+03   -0.49424E-08   -0.14888E-08  3605   0.270E-04
DAV:   1    -0.540005791774E+04   -0.54001E+04   -0.25383E-07  7088   0.221E-03
DAV:   2    -0.540005791774E+04   -0.14807E-08   -0.16158E-08  3656   0.862E-04
       N       E                     dE             d eps       ncg     rms
RMM:   1    -0.500532822385E+03   -0.50053E+03   -0.27803E+03  5602   0.497E+02
RMM:   2    -0.634007869831E+03   -0.13348E+03   -0.79488E+02  9879   0.688E+01
RMM:   3    -0.656480540269E+03   -0.22473E+02   -0.10602E+02 10837   0.181E+01
RMM:   4    -0.660017894819E+03   -0.35374E+01   -0.13043E+01 10913   0.592E+00
RMM:   5    -0.660574360811E+03   -0.55647E+00   -0.21290E+00 11361   0.219E+00
RMM:   6    -0.660662713057E+03   -0.88352E-01   -0.35920E-01 11067   0.809E-01
RMM:   7    -0.660674160533E+03   -0.11447E-01   -0.39290E-02 11567   0.290E-01
RMM:   8    -0.660675807038E+03   -0.16465E-02   -0.74967E-03 11461   0.109E-01
RMM:   9    -0.660676036560E+03   -0.22952E-03   -0.76951E-04 11611   0.373E-02
RMM:  10    -0.660676072992E+03   -0.36433E-04   -0.17990E-04 10772   0.144E-02
RMM:  11    -0.660676079949E+03   -0.69562E-05   -0.19259E-05  9111   0.522E-03
RMM:  12    -0.660676081002E+03   -0.10529E-05   -0.56482E-06  7987   0.219E-03
RMM:  13    -0.660676081193E+03   -0.19115E-06   -0.50942E-07  6611   0.835E-04
RMM:  14    -0.660676081219E+03   -0.26049E-07   -0.13708E-07  4725   0.423E-04
RMM:  15    -0.660676081224E+03   -0.50197E-08   -0.14529E-08  3597   0.269E-04
DAV:   1    -0.540003111073E+04   -0.54000E+04   -0.16571E+00  6650   0.622E+00
DAV:   2    -0.540004595177E+04   -0.14841E-01   -0.14841E-01  7856   0.182E+00
DAV:   3    -0.540004653221E+04   -0.58044E-03   -0.58043E-03  8440   0.377E-01
DAV:   4    -0.540004657715E+04   -0.44939E-04   -0.44938E-04  8504   0.845E-02
DAV:   5    -0.540004658145E+04   -0.43026E-05   -0.43023E-05  8720   0.265E-02
DAV:   6    -0.540004658187E+04   -0.41188E-06   -0.41189E-06  7584   0.681E-03
DAV:   7    -0.540004658191E+04   -0.42995E-07   -0.43000E-07  6160   0.230E-03
DAV:   8    -0.540004658191E+04   -0.45156E-08   -0.44068E-08  5176   0.782E-04
       N       E                     dE             d eps       ncg     rms
RMM:   1    -0.500670155683E+03   -0.50067E+03   -0.27810E+03  5603   0.497E+02
RMM:   2    -0.634172350587E+03   -0.13350E+03   -0.79560E+02  9878   0.688E+01
RMM:   3    -0.656670124304E+03   -0.22498E+02   -0.10641E+02 10847   0.181E+01
RMM:   4    -0.660215076766E+03   -0.35450E+01   -0.13062E+01 10916   0.592E+00
RMM:   5    -0.660771763762E+03   -0.55669E+00   -0.21307E+00 11376   0.219E+00
RMM:   6    -0.660860190438E+03   -0.88427E-01   -0.35810E-01 11051   0.808E-01
RMM:   7    -0.660871721558E+03   -0.11531E-01   -0.39778E-02 11589   0.291E-01
RMM:   8    -0.660873389935E+03   -0.16684E-02   -0.75947E-03 11442   0.109E-01
RMM:   9    -0.660873621172E+03   -0.23124E-03   -0.78026E-04 11637   0.373E-02
RMM:  10    -0.660873657780E+03   -0.36608E-04   -0.18019E-04 10747   0.144E-02
RMM:  11    -0.660873664652E+03   -0.68719E-05   -0.19119E-05  9069   0.520E-03
RMM:  12    -0.660873665692E+03   -0.10409E-05   -0.55955E-06  7954   0.219E-03
RMM:  13    -0.660873665885E+03   -0.19288E-06   -0.51530E-07  6651   0.840E-04
RMM:  14    -0.660873665912E+03   -0.26417E-07   -0.13904E-07  4709   0.423E-04
RMM:  15    -0.660873665917E+03   -0.48894E-08   -0.14509E-08  3592   0.269E-04
DAV:   1    -0.539998949290E+04   -0.54000E+04   -0.16361E+00  6727   0.627E+00
DAV:   2    -0.540000473557E+04   -0.15243E-01   -0.15242E-01  7840   0.182E+00
DAV:   3    -0.540000530843E+04   -0.57286E-03   -0.57285E-03  8560   0.367E-01
DAV:   4    -0.540000534999E+04   -0.41553E-04   -0.41551E-04  8512   0.785E-02
DAV:   5    -0.540000535375E+04   -0.37636E-05   -0.37636E-05  8952   0.248E-02
DAV:   6    -0.540000535412E+04   -0.37510E-06   -0.37521E-06  7256   0.622E-03
DAV:   7    -0.540000535417E+04   -0.43219E-07   -0.43272E-07  6168   0.235E-03
DAV:   8    -0.540000535417E+04   -0.51059E-08   -0.51514E-08  5192   0.797E-04
       N       E                     dE             d eps       ncg     rms
RMM:   1    -0.518361298117E+03   -0.51836E+03   -0.25509E+03  5691   0.463E+02
RMM:   2    -0.638304016730E+03   -0.11994E+03   -0.71524E+02 10033   0.672E+01
RMM:   3    -0.656912312252E+03   -0.18608E+02   -0.10482E+02 10781   0.176E+01
RMM:   4    -0.660555953995E+03   -0.36436E+01   -0.13496E+01 11094   0.595E+00
RMM:   5    -0.661173863140E+03   -0.61791E+00   -0.21948E+00 11230   0.216E+00
RMM:   6    -0.661254682381E+03   -0.80819E-01   -0.31541E-01 11159   0.785E-01
RMM:   7    -0.661267120506E+03   -0.12438E-01   -0.51134E-02 11503   0.295E-01
RMM:   8    -0.661268724602E+03   -0.16041E-02   -0.65035E-03 11461   0.107E-01
RMM:   9    -0.661268982165E+03   -0.25756E-03   -0.97520E-04 11668   0.396E-02
RMM:  10    -0.661269022420E+03   -0.40255E-04   -0.18569E-04 10867   0.150E-02
RMM:  11    -0.661269029426E+03   -0.70059E-05   -0.21788E-05  9353   0.531E-03
RMM:  12    -0.661269030383E+03   -0.95740E-06   -0.46341E-06  7932   0.215E-03
RMM:  13    -0.661269030565E+03   -0.18156E-06   -0.56265E-07  6646   0.816E-04
RMM:  14    -0.661269030587E+03   -0.22217E-07   -0.91815E-08  4715   0.397E-04
RMM:  15    -0.661269030591E+03   -0.38916E-08   -0.14009E-08  3524   0.261E-04
DAV:   1    -0.540005791774E+04   -0.54001E+04   -0.25383E-07  7088   0.221E-03
DAV:   2    -0.540005791774E+04   -0.14916E-08   -0.16150E-08  3656   0.862E-04
       N       E                     dE             d eps       ncg     rms
RMM:   1    -0.518223115397E+03   -0.51822E+03   -0.25496E+03  5689   0.463E+02
RMM:   2    -0.638267277487E+03   -0.12004E+03   -0.71559E+02 10032   0.672E+01
RMM:   3    -0.656851362216E+03   -0.18584E+02   -0.10447E+02 10770   0.176E+01
RMM:   4    -0.660514586466E+03   -0.36632E+01   -0.13569E+01 11109   0.597E+00
RMM:   5    -0.661139823778E+03   -0.62524E+00   -0.22467E+00 11202   0.216E+00
RMM:   6    -0.661221793206E+03   -0.81969E-01   -0.31969E-01 11193   0.787E-01
RMM:   7    -0.661234287422E+03   -0.12494E-01   -0.51119E-02 11491   0.295E-01
RMM:   8    -0.661235883509E+03   -0.15961E-02   -0.64541E-03 11468   0.107E-01
RMM:   9    -0.661236141923E+03   -0.25841E-03   -0.96441E-04 11630   0.396E-02
RMM:  10    -0.661236182546E+03   -0.40623E-04   -0.18961E-04 10881   0.151E-02
RMM:  11    -0.661236189655E+03   -0.71091E-05   -0.21823E-05  9334   0.533E-03
RMM:  12    -0.661236190606E+03   -0.95048E-06   -0.45335E-06  7944   0.214E-03
RMM:  13    -0.661236190787E+03   -0.18139E-06   -0.58038E-07  6618   0.814E-04
RMM:  14    -0.661236190809E+03   -0.22388E-07   -0.90312E-08  4716   0.396E-04
RMM:  15    -0.661236190813E+03   -0.37486E-08   -0.13580E-08  3505   0.260E-04
DAV:   1    -0.540009435590E+04   -0.54001E+04   -0.16350E+00  6668   0.627E+00
DAV:   2    -0.540010974111E+04   -0.15385E-01   -0.15385E-01  7880   0.184E+00
DAV:   3    -0.540011030267E+04   -0.56156E-03   -0.56156E-03  8544   0.368E-01
DAV:   4    -0.540011034402E+04   -0.41347E-04   -0.41346E-04  8448   0.783E-02
DAV:   5    -0.540011034792E+04   -0.38996E-05   -0.38994E-05  8936   0.254E-02
DAV:   6    -0.540011034831E+04   -0.39319E-06   -0.39330E-06  7240   0.643E-03
DAV:   7    -0.540011034836E+04   -0.47447E-07   -0.47435E-07  6280   0.250E-03
DAV:   8    -0.540011034836E+04   -0.57480E-08   -0.56095E-08  5320   0.832E-04
       N       E                     dE             d eps       ncg     rms
RMM:   1    -0.518017105318E+03   -0.51802E+03   -0.25480E+03  5687   0.463E+02
RMM:   2    -0.638235962992E+03   -0.12022E+03   -0.71652E+02 10032   0.673E+01
RMM:   3    -0.656816686838E+03   -0.18581E+02   -0.10446E+02 10777   0.176E+01
RMM:   4    -0.660470380671E+03   -0.36537E+01   -0.13536E+01 11096   0.596E+00
RMM:   5    -0.661094375673E+03   -0.62400E+00   -0.22367E+00 11216   0.216E+00
RMM:   6    -0.661176239270E+03   -0.81864E-01   -0.32006E-01 11163   0.787E-01
RMM:   7    -0.661188754582E+03   -0.12515E-01   -0.50761E-02 11498   0.295E-01
RMM:   8    -0.661190354496E+03   -0.15999E-02   -0.64895E-03 11445   0.107E-01
RMM:   9    -0.661190613346E+03   -0.25885E-03   -0.95938E-04 11634   0.395E-02
RMM:  10    -0.661190653775E+03   -0.40428E-04   -0.18896E-04 10872   0.151E-02
RMM:  11    -0.661190660956E+03   -0.71812E-05   -0.22187E-05  9326   0.536E-03
RMM:  12    -0.661190661926E+03   -0.96994E-06   -0.45495E-06  7918   0.214E-03
RMM:  13    -0.661190662106E+03   -0.18044E-06   -0.57806E-07  6600   0.818E-04
RMM:  14    -0.661190662129E+03   -0.23115E-07   -0.96089E-08  4727   0.402E-04
RMM:  15    -0.661190662133E+03   -0.41840E-08   -0.15615E-08  3516   0.263E-04
       N       E                     dE             d eps       ncg     rms
RLQ:   1    -0.162177824577E+02   -0.16218E+02   -0.17345E+03  5520   0.410E+02
RLQ:   2    -0.197002233056E+02   -0.34824E+01   -0.25465E+01 10370   0.123E+01
RLQ:   3    -0.208597718099E+02   -0.11595E+01   -0.55043E+00 10787   0.329E+00
RLQ:   4    -0.210042003676E+02   -0.14443E+00   -0.53053E-01 11189   0.101E+00
RLQ:   5    -0.210268861753E+02   -0.22686E-01   -0.94584E-02 11236   0.372E-01
RLQ:   6    -0.210299653214E+02   -0.30791E-02   -0.12537E-02 10795   0.135E-01
RLQ:   7    -0.210304231892E+02   -0.45787E-03   -0.20569E-03 10916   0.513E-02
RLQ:   8    -0.210304866142E+02   -0.63425E-04   -0.25522E-04 10513   0.184E-02
RLQ:   9    -0.210304959642E+02   -0.93500E-05   -0.39560E-05  9621   0.699E-03
RLQ:  10    -0.210304974469E+02   -0.14827E-05   -0.69756E-06  8417   0.271E-03
RLQ:  11    -0.210304976879E+02   -0.24095E-06   -0.80606E-07  7442   0.105E-03
RLQ:  12    -0.210304977239E+02   -0.36055E-07   -0.18208E-07  5675   0.480E-04
RLQ:  13    -0.210304977295E+02   -0.56045E-08   -0.15538E-08  3779   0.277E-04
DAV:   1    -0.540005362974E+04   -0.54001E+04   -0.16568E+00  6637   0.622E+00
DAV:   2    -0.540006849701E+04   -0.14867E-01   -0.14867E-01  7880   0.183E+00
DAV:   3    -0.540006907332E+04   -0.57631E-03   -0.57630E-03  8520   0.376E-01
DAV:   4    -0.540006911746E+04   -0.44139E-04   -0.44138E-04  8536   0.830E-02
DAV:   5    -0.540006912156E+04   -0.40994E-05   -0.40993E-05  8704   0.258E-02
DAV:   6    -0.540006912196E+04   -0.40413E-06   -0.40414E-06  7496   0.674E-03
DAV:   7    -0.540006912201E+04   -0.42772E-07   -0.42946E-07  6160   0.232E-03
DAV:   8    -0.540006912201E+04   -0.47312E-08   -0.45881E-08  5208   0.798E-04
       N       E                     dE             d eps       ncg     rms
RMM:   1    -0.512336865524E+03   -0.51234E+03   -0.25986E+03  5657   0.471E+02
RMM:   2    -0.636065003759E+03   -0.12373E+03   -0.73727E+02 10074   0.681E+01
RMM:   3    -0.656340518799E+03   -0.20276E+02   -0.11375E+02 10877   0.181E+01
RMM:   4    -0.660120646510E+03   -0.37801E+01   -0.14059E+01 11030   0.609E+00
RMM:   5    -0.660759005419E+03   -0.63836E+00   -0.28375E+00 11397   0.231E+00
RMM:   6    -0.660851975364E+03   -0.92970E-01   -0.33480E-01 11072   0.815E-01
RMM:   7    -0.660865994874E+03   -0.14020E-01   -0.57863E-02 11644   0.312E-01
RMM:   8    -0.660867821766E+03   -0.18269E-02   -0.73700E-03 11486   0.112E-01
RMM:   9    -0.660868085891E+03   -0.26413E-03   -0.10440E-03 11804   0.397E-02
RMM:  10    -0.660868126311E+03   -0.40419E-04   -0.18733E-04 10767   0.147E-02
RMM:  11    -0.660868133480E+03   -0.71699E-05   -0.26878E-05  9560   0.540E-03
RMM:  12    -0.660868134583E+03   -0.11026E-05   -0.52087E-06  7857   0.217E-03
RMM:  13    -0.660868134788E+03   -0.20461E-06   -0.76840E-07  6700   0.856E-04
RMM:  14    -0.660868134818E+03   -0.30446E-07   -0.13920E-07  4872   0.424E-04
RMM:  15    -0.660868134824E+03   -0.57797E-08   -0.23284E-08  3593   0.270E-04
DAV:   1    -0.540005791774E+04   -0.54001E+04   -0.25383E-07  7088   0.221E-03
DAV:   2    -0.540005791774E+04   -0.15561E-08   -0.16163E-08  3656   0.862E-04
       N       E                     dE             d eps       ncg     rms
RMM:   1    -0.512322321794E+03   -0.51232E+03   -0.25981E+03  5656   0.471E+02
RMM:   2    -0.636065981536E+03   -0.12374E+03   -0.73726E+02 10071   0.681E+01
RMM:   3    -0.656355638609E+03   -0.20290E+02   -0.11390E+02 10876   0.181E+01
RMM:   4    -0.660135237990E+03   -0.37796E+01   -0.14039E+01 11040   0.608E+00
RMM:   5    -0.660774182450E+03   -0.63894E+00   -0.28465E+00 11375   0.230E+00
RMM:   6    -0.660866902338E+03   -0.92720E-01   -0.33225E-01 11097   0.814E-01
RMM:   7    -0.660880909435E+03   -0.14007E-01   -0.58629E-02 11629   0.313E-01
RMM:   8    -0.660882745519E+03   -0.18361E-02   -0.72203E-03 11478   0.112E-01
RMM:   9    -0.660883010333E+03   -0.26481E-03   -0.10494E-03 11801   0.398E-02
RMM:  10    -0.660883051069E+03   -0.40736E-04   -0.18811E-04 10780   0.147E-02
RMM:  11    -0.660883058257E+03   -0.71885E-05   -0.26797E-05  9509   0.541E-03
RMM:  12    -0.660883059386E+03   -0.11287E-05   -0.54139E-06  7879   0.220E-03
RMM:  13    -0.660883059595E+03   -0.20872E-06   -0.76427E-07  6679   0.855E-04
RMM:  14    -0.660883059624E+03   -0.29191E-07   -0.13176E-07  4879   0.418E-04
RMM:  15    -0.660883059629E+03   -0.53999E-08   -0.21247E-08  3573   0.267E-04
DAV:   1    -0.540003111073E+04   -0.54000E+04   -0.16571E+00  6650   0.622E+00
DAV:   2    -0.540004595177E+04   -0.14841E-01   -0.14841E-01  7856   0.182E+00
DAV:   3    -0.540004653221E+04   -0.58044E-03   -0.58043E-03  8440   0.377E-01
DAV:   4    -0.540004657715E+04   -0.44939E-04   -0.44938E-04  8504   0.845E-02
DAV:   5    -0.540004658145E+04   -0.43024E-05   -0.43023E-05  8720   0.265E-02
DAV:   6    -0.540004658187E+04   -0.41178E-06   -0.41189E-06  7584   0.681E-03
DAV:   7    -0.540004658191E+04   -0.42859E-07   -0.43001E-07  6160   0.230E-03
DAV:   8    -0.540004658191E+04   -0.46175E-08   -0.44071E-08  5176   0.782E-04
       N       E                     dE             d eps       ncg     rms
RMM:   1    -0.512144848837E+03   -0.51214E+03   -0.25962E+03  5654   0.471E+02
RMM:   2    -0.636028540485E+03   -0.12388E+03   -0.73786E+02 10071   0.682E+01
RMM:   3    -0.656348098203E+03   -0.20320E+02   -0.11430E+02 10877   0.181E+01
RMM:   4    -0.660134428036E+03   -0.37863E+01   -0.14034E+01 11028   0.609E+00
RMM:   5    -0.660775110936E+03   -0.64068E+00   -0.28644E+00 11394   0.231E+00
RMM:   6    -0.660868225982E+03   -0.93115E-01   -0.33213E-01 11075   0.815E-01
RMM:   7    -0.660882304370E+03   -0.14078E-01   -0.58746E-02 11643   0.313E-01
RMM:   8    -0.660884147589E+03   -0.18432E-02   -0.72853E-03 11497   0.112E-01
RMM:   9    -0.660884412591E+03   -0.26500E-03   -0.10423E-03 11790   0.397E-02
RMM:  10    -0.660884453820E+03   -0.41229E-04   -0.19189E-04 10773   0.147E-02
RMM:  11    -0.660884461000E+03   -0.71793E-05   -0.27284E-05  9556   0.541E-03
RMM:  12    -0.660884462133E+03   -0.11334E-05   -0.53358E-06  7840   0.217E-03
RMM:  13    -0.660884462337E+03   -0.20375E-06   -0.75543E-07  6697   0.849E-04
RMM:  14    -0.660884462366E+03   -0.28833E-07   -0.12866E-07  4852   0.414E-04
RMM:  15    -0.660884462371E+03   -0.52707E-08   -0.20449E-08  3563   0.265E-04
DAV:   1    -0.539997504352E+04   -0.54000E+04   -0.16421E+00  6804   0.623E+00
DAV:   2    -0.539998955313E+04   -0.14510E-01   -0.14509E-01  7864   0.181E+00
DAV:   3    -0.539999010008E+04   -0.54695E-03   -0.54694E-03  8536   0.365E-01
DAV:   4    -0.539999014203E+04   -0.41952E-04   -0.41951E-04  8544   0.799E-02
DAV:   5    -0.539999014574E+04   -0.37065E-05   -0.37063E-05  8792   0.249E-02
DAV:   6    -0.539999014612E+04   -0.38578E-06   -0.38617E-06  7288   0.657E-03
DAV:   7    -0.539999014617E+04   -0.42847E-07   -0.42655E-07  6304   0.237E-03
DAV:   8    -0.539999014617E+04   -0.40427E-08   -0.42020E-08  5288   0.795E-04
       N       E                     dE             d eps       ncg     rms
RMM:   1    -0.518226689670E+03   -0.51823E+03   -0.25490E+03  5689   0.463E+02
RMM:   2    -0.638296225299E+03   -0.12007E+03   -0.71570E+02 10031   0.673E+01
RMM:   3    -0.656903103459E+03   -0.18607E+02   -0.10448E+02 10778   0.176E+01
RMM:   4    -0.660566022814E+03   -0.36629E+01   -0.13560E+01 11099   0.596E+00
RMM:   5    -0.661191188801E+03   -0.62517E+00   -0.22368E+00 11222   0.216E+00
RMM:   6    -0.661273546126E+03   -0.82357E-01   -0.32384E-01 11192   0.789E-01
RMM:   7    -0.661286050577E+03   -0.12504E-01   -0.50561E-02 11486   0.295E-01
RMM:   8    -0.661287652821E+03   -0.16022E-02   -0.65590E-03 11468   0.107E-01
RMM:   9    -0.661287909212E+03   -0.25639E-03   -0.97507E-04 11673   0.395E-02
RMM:  10    -0.661287949467E+03   -0.40254E-04   -0.18496E-04 10863   0.150E-02
RMM:  11    -0.661287956499E+03   -0.70320E-05   -0.21865E-05  9378   0.530E-03
RMM:  12    -0.661287957425E+03   -0.92665E-06   -0.43366E-06  7916   0.212E-03
RMM:  13    -0.661287957601E+03   -0.17605E-06   -0.59102E-07  6668   0.818E-04
RMM:  14    -0.661287957624E+03   -0.22976E-07   -0.92328E-08  4732   0.399E-04
RMM:  15    -0.661287957628E+03   -0.39986E-08   -0.14812E-08  3509   0.262E-04
DAV:   1    -0.540005791774E+04   -0.54001E+04   -0.25383E-07  7088   0.221E-03
DAV:   2    -0.540005791774E+04   -0.16307E-08   -0.16159E-08  3656   0.862E-04
       N       E                     dE             d eps       ncg     rms
RMM:   1    -0.518223115397E+03   -0.51822E+03   -0.25496E+03  5689   0.463E+02
RMM:   2    -0.638267277487E+03   -0.12004E+03   -0.71559E+02 10032   0.672E+01
RMM:   3    -0.656851362216E+03   -0.18584E+02   -0.10447E+02 10770   0.176E+01
RMM:   4    -0.660514586466E+03   -0.36632E+01   -0.13569E+01 11109   0.597E+00
RMM:   5    -0.661139823778E+03   -0.62524E+00   -0.22467E+00 11202   0.216E+00
RMM:   6    -0.661221793206E+03   -0.81969E-01   -0.31969E-01 11193   0.787E-01
RMM:   7    -0.661234287422E+03   -0.12494E-01   -0.51119E-02 11491   0.295E-01
RMM:   8    -0.661235883509E+03   -0.15961E-02   -0.64541E-03 11468   0.107E-01
RMM:   9    -0.661236141923E+03   -0.25841E-03   -0.96441E-04 11630   0.396E-02
RMM:  10    -0.661236182546E+03   -0.40623E-04   -0.18961E-04 10881   0.151E-02
RMM:  11    -0.661236189655E+03   -0.71091E-05   -0.21823E-05  9334   0.533E-03
RMM:  12    -0.661236190606E+03   -0.95048E-06   -0.45335E-06  7944   0.214E-03
RMM:  13    -0.661236190787E+03   -0.18139E-06   -0.58037E-07  6618   0.814E-04
RMM:  14    -0.661236190809E+03   -0.22388E-07   -0.90311E-08  4716   0.396E-04
RMM:  15    -0.661236190813E+03   -0.37483E-08   -0.13580E-08  3505   0.260E-04
DAV:   1    -0.540011041218E+04   -0.54001E+04   -0.16416E+00  6788   0.623E+00
DAV:   2    -0.540012495582E+04   -0.14544E-01   -0.14543E-01  7840   0.182E+00
DAV:   3    -0.540012551026E+04   -0.55444E-03   -0.55444E-03  8568   0.369E-01
DAV:   4    -0.540012555242E+04   -0.42157E-04   -0.42156E-04  8576   0.799E-02
DAV:   5    -0.540012555608E+04   -0.36636E-05   -0.36635E-05  8824   0.249E-02
DAV:   6    -0.540012555646E+04   -0.37836E-06   -0.37822E-06  7232   0.646E-03
DAV:   7    -0.540012555650E+04   -0.42453E-07   -0.42644E-07  6200   0.234E-03
DAV:   8    -0.540012555651E+04   -0.36353E-08   -0.35973E-08  5168   0.769E-04
       N       E                     dE             d eps       ncg     rms
RMM:   1    -0.518343970175E+03   -0.51834E+03   -0.25519E+03  5692   0.463E+02
RMM:   2    -0.638217240038E+03   -0.11987E+03   -0.71502E+02 10027   0.672E+01
RMM:   3    -0.656804848003E+03   -0.18588E+02   -0.10457E+02 10771   0.176E+01
RMM:   4    -0.660454861370E+03   -0.36500E+01   -0.13535E+01 11100   0.597E+00
RMM:   5    -0.661075008800E+03   -0.62015E+00   -0.21969E+00 11208   0.216E+00
RMM:   6    -0.661156524676E+03   -0.81516E-01   -0.32346E-01 11182   0.788E-01
RMM:   7    -0.661168945119E+03   -0.12420E-01   -0.49528E-02 11497   0.294E-01
RMM:   8    -0.661170517095E+03   -0.15720E-02   -0.64488E-03 11460   0.106E-01
RMM:   9    -0.661170775603E+03   -0.25851E-03   -0.95583E-04 11626   0.394E-02
RMM:  10    -0.661170816016E+03   -0.40412E-04   -0.18949E-04 10871   0.152E-02
RMM:  11    -0.661170823300E+03   -0.72848E-05   -0.22582E-05  9309   0.538E-03
RMM:  12    -0.661170824304E+03   -0.10035E-05   -0.47693E-06  7908   0.217E-03
RMM:  13    -0.661170824496E+03   -0.19209E-06   -0.57680E-07  6610   0.824E-04
RMM:  14    -0.661170824519E+03   -0.22636E-07   -0.91837E-08  4723   0.398E-04
RMM:  15    -0.661170824522E+03   -0.36619E-08   -0.12627E-08  3527   0.261E-04
       N       E                     dE             d eps       ncg     rms
RLQ:   1    -0.159958284006E+02   -0.15996E+02   -0.17209E+03  5520   0.403E+02
RLQ:   2    -0.194636636381E+02   -0.34678E+01   -0.25061E+01 10289   0.121E+01
RLQ:   3    -0.205926782704E+02   -0.11290E+01   -0.52815E+00 10752   0.321E+00
RLQ:   4    -0.207212670008E+02   -0.12859E+00   -0.48303E-01 11173   0.977E-01
RLQ:   5    -0.207411189535E+02   -0.19852E-01   -0.98097E-02 11143   0.370E-01
RLQ:   6    -0.207442758508E+02   -0.31569E-02   -0.11508E-02 10838   0.139E-01
RLQ:   7    -0.207448382441E+02   -0.56239E-03   -0.28843E-03 10979   0.539E-02
RLQ:   8    -0.207449141259E+02   -0.75882E-04   -0.24649E-04 10377   0.186E-02
RLQ:   9    -0.207449264010E+02   -0.12275E-04   -0.70630E-05  9581   0.709E-03
RLQ:  10    -0.207449279573E+02   -0.15563E-05   -0.51238E-06  8152   0.249E-03
RLQ:  11    -0.207449281649E+02   -0.20755E-06   -0.88115E-07  7487   0.974E-04
RLQ:  12    -0.207449281978E+02   -0.32951E-07   -0.12635E-07  5428   0.440E-04
RLQ:  13    -0.207449282030E+02   -0.51107E-08   -0.20599E-08  3698   0.273E-04
