 vasp.6.2.1 16May21 (build Jan  3 2022 11:18:50) complex                         
 executed on             LinuxGNU date 2023.01.27  17:09:39
 running    1 mpi-ranks, with    1 threads/rank
 distrk:  each k-point on    1 cores,    1 groups
 distr:  one band on NCORE=   1 cores,    1 groups


--------------------------------------------------------------------------------------------------------


 INCAR:
   ISTART = 0
   ISMEAR = 0
   SIGMA = 0.01
   ENCUT = 550
   PREC = N
   LREAL = A
   EDIFF = 1e-8
   LCHIMAG = .TRUE.	
   DQ = 0.003
   ICHIBARE = 1
   LEFG = .TRUE.
   QUAD_EFG = 104 -320 -25.58 -94.2

 POTCAR:    PAW_PBE Na_sv_GW 11May2015            
 POTCAR:    PAW_PBE Nb_sv_GW 05Dec2013            
 POTCAR:    PAW_PBE O_s_GW 10Jan2007              
 POTCAR:    PAW_PBE F_GW 21Dec2007                
 POTCAR:    PAW_PBE Na_sv_GW 11May2015            
   SHA256 =  7aca660ab3bfaee19d1ee7a682571aefe7e2df9c5a478cbc4ca048f133583603 Na_sv_GW/POTCAR       
   COPYR  = (c) Copyright 11May2015 Georg Kresse                                                    
   COPYR  = This file is part of the software VASP. Any use, copying, and all other rights are regul
   COPYR  = If you do not have a valid VASP license, you may not use, copy or distribute this file. 
   VRHFIN =Na: 2s2p3s                                                                               
   LEXCH  = PE                                                                                      
   EATOM  =  1305.7875 eV,   95.9727 Ry                                                             
                                                                                                    
   TITEL  = PAW_PBE Na_sv_GW 11May2015                                                              
   LULTRA =        F    use ultrasoft PP ?                                                          
   IUNSCR =        1    unscreen: 0-lin 1-nonlin 2-no                                               
   RPACOR =    1.800    partial core radius                                                         
   POMASS =   22.990; ZVAL   =    9.000    mass and valenz                                          
   RCORE  =    2.200    outmost cutoff radius                                                       
   RWIGS  =    2.200; RWIGS  =    1.164    wigner-seitz radius (au A)                               
   ENMAX  =  372.853; ENMIN  =  279.639 eV                                                          
   RCLOC  =    1.108    cutoff for local pot                                                        
   LCOR   =        T    correct aug charges                                                         
   LPAW   =        T    paw PP                                                                      
   EAUG   =  536.357                                                                                
   RMAX   =    2.245    core radius for proj-oper                                                   
   RAUG   =    1.300    factor for augmentation sphere                                              
   RDEP   =    2.259    radius for radial grids                                                     
   RDEPT  =    1.800    core radius for aug-charge                                                  
                                                                                                    
   Atomic configuration                                                                             
    6 entries                                                                                       
     n  l   j            E        occ.                                                              
     1  0  0.50     -1035.8704   2.0000                                                             
     2  0  0.50       -58.9175   2.0000                                                             
     2  1  1.50       -30.8193   6.0000                                                             
     3  1  1.50        -1.4789   1.0000                                                             
     3  2  1.50        -0.7184   0.0000                                                             
     4  3  2.50        -1.3606   0.0000                                                             
   Description                                                                                      
     l       E           TYP  RCUT    TYP  RCUT                                                     
     0    -58.9175350     23  1.400                                                                 
     0    108.8466080     23  1.400                                                                 
     1    -30.8192593     23  1.650                                                                 
     1     -1.4788505     23  2.200                                                                 
     1     81.6349560     23  2.200                                                                 
     2     20.4087390     23  2.200                                                                 
     2     54.4233040     23  2.200                                                                 
  local pseudopotential read in
  partial core-charges read in
  partial kinetic energy density read in
  kinetic energy density of atom read in
  atomic valenz-charges read in
  non local Contribution for L=           0  read in
    real space projection operators read in
  non local Contribution for L=           0  read in
    real space projection operators read in
  non local Contribution for L=           1  read in
    real space projection operators read in
  non local Contribution for L=           1  read in
    real space projection operators read in
  non local Contribution for L=           1  read in
    real space projection operators read in
  non local Contribution for L=           2  read in
    real space projection operators read in
  non local Contribution for L=           2  read in
    real space projection operators read in
    PAW grid and wavefunctions read in

   number of l-projection  operators is LMAX  =           7
   number of lm-projection operators is LMMAX =          21

 POTCAR:    PAW_PBE Nb_sv_GW 05Dec2013            
   SHA256 =  92555312d9ac833af0561e40fc4a76e56d71d4d09d8a06650f27d1c6e90b59b6 Nb_sv_GW/POTCAR       
   COPYR  = (c) Copyright 05Dec2013 Georg Kresse                                                    
   COPYR  = This file is part of the software VASP. Any use, copying, and all other rights are regul
   COPYR  = If you do not have a valid VASP license, you may not use, copy or distribute this file. 
   VRHFIN =Nb: s1d4                                                                                 
   LEXCH  = PE                                                                                      
   EATOM  =  1553.9121 eV,  114.2093 Ry                                                             
                                                                                                    
   TITEL  = PAW_PBE Nb_sv_GW 05Dec2013                                                              
   LULTRA =        F    use ultrasoft PP ?                                                          
   IUNSCR =        1    unscreen: 0-lin 1-nonlin 2-no                                               
   RPACOR =    2.000    partial core radius                                                         
   POMASS =   92.910; ZVAL   =   13.000    mass and valenz                                          
   RCORE  =    2.100    outmost cutoff radius                                                       
   RWIGS  =    2.100; RWIGS  =    1.111    wigner-seitz radius (au A)                               
   ENMAX  =  353.872; ENMIN  =  265.404 eV                                                          
   RCLOC  =    1.504    cutoff for local pot                                                        
   LCOR   =        T    correct aug charges                                                         
   LPAW   =        T    paw PP                                                                      
   EAUG   =  985.604                                                                                
   DEXC   =    0.000                                                                                
   RMAX   =    2.143    core radius for proj-oper                                                   
   RAUG   =    1.300    factor for augmentation sphere                                              
   RDEP   =    2.156    radius for radial grids                                                     
   RDEPT  =    1.659    core radius for aug-charge                                                  
                                                                                                    
   Atomic configuration                                                                             
   12 entries                                                                                       
     n  l   j            E        occ.                                                              
     1  0  0.50    -18803.5055   2.0000                                                             
     2  0  0.50     -2628.3975   2.0000                                                             
     2  1  1.50     -2346.5263   6.0000                                                             
     3  0  0.50      -437.0036   2.0000                                                             
     3  1  1.50      -344.8858   6.0000                                                             
     3  2  2.50      -194.3725  10.0000                                                             
     4  0  0.50       -56.5884   2.0000                                                             
     4  0  0.50       -59.8656   0.0000                                                             
     4  1  1.50       -32.8152   6.0000                                                             
     4  1  1.50       -38.0963   0.0000                                                             
     4  2  2.50        -1.9113   5.0000                                                             
     4  3  2.50        -1.3606   0.0000                                                             
   Description                                                                                      
     l       E           TYP  RCUT    TYP  RCUT                                                     
     0    -56.5884230     23  1.300                                                                 
     0    -59.8656344     23  1.300                                                                 
     1    -32.8152291     23  1.800                                                                 
     1    -38.0963128     23  1.800                                                                 
     1     54.4233040     23  1.800                                                                 
     2     -1.9112974     23  2.000                                                                 
     2     -6.8029130     23  2.000                                                                 
     2    136.0582600     23  2.000                                                                 
     3     13.6058260     23  2.100                                                                 
     3     81.6349560     23  2.100                                                                 
  local pseudopotential read in
  partial core-charges read in
  partial kinetic energy density read in
  kinetic energy density of atom read in
  atomic valenz-charges read in
  non local Contribution for L=           0  read in
    real space projection operators read in
  non local Contribution for L=           0  read in
    real space projection operators read in
  non local Contribution for L=           1  read in
    real space projection operators read in
  non local Contribution for L=           1  read in
    real space projection operators read in
  non local Contribution for L=           1  read in
    real space projection operators read in
  non local Contribution for L=           2  read in
    real space projection operators read in
  non local Contribution for L=           2  read in
    real space projection operators read in
  non local Contribution for L=           2  read in
    real space projection operators read in
  non local Contribution for L=           3  read in
    real space projection operators read in
  non local Contribution for L=           3  read in
    real space projection operators read in
    PAW grid and wavefunctions read in

   number of l-projection  operators is LMAX  =          10
   number of lm-projection operators is LMMAX =          40

 POTCAR:    PAW_PBE O_s_GW 10Jan2007              
   SHA256 =  8479399bb3502b2838d2b23234b8597ed1f898a5a7f592e6c46d7b1ca5096bfd O_s_GW/POTCAR         
   COPYR  = (c) Copyright 10Jan2007 Georg Kresse                                                    
   COPYR  = This file is part of the software VASP. Any use, copying, and all other rights are regul
   COPYR  = If you do not have a valid VASP license, you may not use, copy or distribute this file. 
   VRHFIN =O: s2p4                                                                                  
   LEXCH  = PE                                                                                      
   EATOM  =   432.3788 eV,   31.7789 Ry                                                             
                                                                                                    
   TITEL  = PAW_PBE O_s_GW 10Jan2007                                                                
   LULTRA =        F    use ultrasoft PP ?                                                          
   IUNSCR =        0    unscreen: 0-lin 1-nonlin 2-no                                               
   RPACOR =    0.000    partial core radius                                                         
   POMASS =   16.000; ZVAL   =    6.000    mass and valenz                                          
   RCORE  =    1.700    outmost cutoff radius                                                       
   RWIGS  =    1.800; RWIGS  =    0.953    wigner-seitz radius (au A)                               
   ENMAX  =  334.664; ENMIN  =  250.998 eV                                                          
   ICORE  =        2    local potential                                                             
   LCOR   =        T    correct aug charges                                                         
   LPAW   =        T    paw PP                                                                      
   EAUG   =  468.659                                                                                
   DEXC   =    0.000                                                                                
   RMAX   =    1.737    core radius for proj-oper                                                   
   RAUG   =    1.300    factor for augmentation sphere                                              
   RDEP   =    1.761    radius for radial grids                                                     
   RDEPT  =    1.463    core radius for aug-charge                                                  
                                                                                                    
   Atomic configuration                                                                             
    4 entries                                                                                       
     n  l   j            E        occ.                                                              
     1  0  0.50      -514.6923   2.0000                                                             
     2  0  0.50       -23.9615   2.0000                                                             
     2  1  0.50        -9.0305   4.0000                                                             
     3  2  1.50        -9.5241   0.0000                                                             
   Description                                                                                      
     l       E           TYP  RCUT    TYP  RCUT                                                     
     0    -23.9615316     23  1.400                                                                 
     0     95.2407820     23  1.400                                                                 
     1     -9.0304908     23  1.700                                                                 
     1    -20.4087390     23  1.700                                                                 
     1    108.8466080     23  1.700                                                                 
     2      6.8029130      7  1.500                                                                 
  local pseudopotential read in
  kinetic energy density of atom read in
  atomic valenz-charges read in
  non local Contribution for L=           0  read in
    real space projection operators read in
  non local Contribution for L=           0  read in
    real space projection operators read in
  non local Contribution for L=           1  read in
    real space projection operators read in
  non local Contribution for L=           1  read in
    real space projection operators read in
  non local Contribution for L=           1  read in
    real space projection operators read in
    PAW grid and wavefunctions read in

   number of l-projection  operators is LMAX  =           5
   number of lm-projection operators is LMMAX =          11

 POTCAR:    PAW_PBE F_GW 21Dec2007                
   SHA256 =  a4be5be7c2e94ecbdd74e103f102d884b83cc3f3bf5f2c60c72fa35846851376 F_GW/POTCAR           
   COPYR  = (c) Copyright 21Dec2007 Georg Kresse                                                    
   COPYR  = This file is part of the software VASP. Any use, copying, and all other rights are regul
   COPYR  = If you do not have a valid VASP license, you may not use, copy or distribute this file. 
   VRHFIN =F: s2p5                                                                                  
   LEXCH  = PE                                                                                      
   EATOM  =   659.6475 eV,   48.4827 Ry                                                             
                                                                                                    
   TITEL  = PAW_PBE F_GW 21Dec2007                                                                  
   LULTRA =        F    use ultrasoft PP ?                                                          
   IUNSCR =        0    unscreen: 0-lin 1-nonlin 2-no                                               
   RPACOR =    0.000    partial core radius                                                         
   POMASS =   18.998; ZVAL   =    7.000    mass and valenz                                          
   RCORE  =    1.400    outmost cutoff radius                                                       
   RWIGS  =    1.500; RWIGS  =    0.794    wigner-seitz radius (au A)                               
   ENMAX  =  487.698; ENMIN  =  365.773 eV                                                          
   ICORE  =        2    local potential                                                             
   LCOR   =        T    correct aug charges                                                         
   LPAW   =        T    paw PP                                                                      
   EAUG   =  697.405                                                                                
   DEXC   =    0.000                                                                                
   RMAX   =    1.435    core radius for proj-oper                                                   
   RAUG   =    1.300    factor for augmentation sphere                                              
   RDEP   =    1.444    radius for radial grids                                                     
   RDEPT  =    1.218    core radius for aug-charge                                                  
                                                                                                    
   Atomic configuration                                                                             
    4 entries                                                                                       
     n  l   j            E        occ.                                                              
     1  0  0.50      -663.3661   2.0000                                                             
     2  0  0.50       -29.8995   2.0000                                                             
     2  1  0.50       -11.1114   5.0000                                                             
     3  2  1.50       -12.2452   0.0000                                                             
   Description                                                                                      
     l       E           TYP  RCUT    TYP  RCUT                                                     
     0    -29.8995019     23  1.100                                                                 
     0     -9.5240782     23  1.100                                                                 
     1    -11.1113914     23  1.400                                                                 
     1      1.3605826     23  1.400                                                                 
     2    -12.2452434     23  1.400                                                                 
  local pseudopotential read in
  kinetic energy density of atom read in
  atomic valenz-charges read in
  non local Contribution for L=           0  read in
    real space projection operators read in
  non local Contribution for L=           0  read in
    real space projection operators read in
  non local Contribution for L=           1  read in
    real space projection operators read in
  non local Contribution for L=           1  read in
    real space projection operators read in
    PAW grid and wavefunctions read in

   number of l-projection  operators is LMAX  =           4
   number of lm-projection operators is LMMAX =           8

 Optimization of the real space projectors (new method)

 maximal supplied QI-value         = 17.01
 optimisation between [QCUT,QGAM] = [ 11.91, 23.98] = [ 39.69,161.04] Ry 
 Optimized for a Real-space Cutoff    1.41 Angstroem

   l    n(q)    QCUT    max X(q) W(low)/X(q) W(high)/X(q)  e(spline) 
   0     10    11.905     3.417    0.52E-05    0.14E-05    0.21E-07
   0     10    11.905     3.114    0.22E-04    0.17E-05    0.22E-06
   1     10    11.905     5.429    0.19E-03    0.12E-03    0.89E-06
   1     10    11.905    22.312    0.14E-03    0.89E-04    0.45E-06
   1     10    11.905     3.323    0.31E-03    0.19E-03    0.13E-05
   2      9    11.905    12.030    0.19E-03    0.32E-04    0.24E-06
   2      9    11.905     8.156    0.21E-03    0.33E-04    0.24E-06
 Optimization of the real space projectors (new method)

 maximal supplied QI-value         = 17.95
 optimisation between [QCUT,QGAM] = [ 11.85, 23.88] = [ 39.31,159.64] Ry 
 Optimized for a Real-space Cutoff    1.45 Angstroem

   l    n(q)    QCUT    max X(q) W(low)/X(q) W(high)/X(q)  e(spline) 
   0     10    11.849   248.532    0.11E-04    0.26E-04    0.11E-05
   0     10    11.849   271.708    0.11E-04    0.26E-04    0.11E-05
   1     10    11.849   107.013    0.14E-03    0.18E-03    0.94E-06
   1     10    11.849   114.493    0.14E-03    0.18E-03    0.95E-06
   1     10    11.849    11.973    0.12E-03    0.16E-03    0.82E-06
   2      9    11.849    38.061    0.49E-03    0.41E-03    0.66E-06
   2      9    11.849    33.524    0.48E-03    0.41E-03    0.65E-06
   2      9    11.849     3.389    0.27E-03    0.25E-03    0.38E-06
   3      9    11.849     2.841    0.11E-03    0.17E-03    0.51E-06
   3      9    11.849     1.405    0.24E-04    0.86E-04    0.29E-06
 Optimization of the real space projectors (new method)

 maximal supplied QI-value         = 22.11
 optimisation between [QCUT,QGAM] = [ 11.94, 23.88] = [ 39.92,159.67] Ry 
 Optimized for a Real-space Cutoff    1.45 Angstroem

   l    n(q)    QCUT    max X(q) W(low)/X(q) W(high)/X(q)  e(spline) 
   0     10    11.939     5.088    0.25E-04    0.28E-06    0.17E-06
   0     10    11.939     1.664    0.52E-04    0.46E-05    0.54E-06
   1     10    11.939     8.077    0.27E-03    0.19E-03    0.13E-05
   1     10    11.939     5.951    0.49E-03    0.34E-03    0.25E-05
   1     10    11.939     3.597    0.20E-03    0.15E-03    0.13E-05
 Optimization of the real space projectors (new method)

 maximal supplied QI-value         = 26.83
 optimisation between [QCUT,QGAM] = [ 11.81, 23.88] = [ 39.04,159.72] Ry 
 Optimized for a Real-space Cutoff    1.11 Angstroem

   l    n(q)    QCUT    max X(q) W(low)/X(q) W(high)/X(q)  e(spline) 
   0      8    11.807    15.805    0.41E-03    0.77E-03    0.26E-06
   0      8    11.807    12.410    0.41E-03    0.76E-03    0.26E-06
   1      7    11.807     9.077    0.16E-03    0.46E-03    0.19E-06
   1      7    11.807     8.229    0.14E-03    0.43E-03    0.19E-06
  PAW_PBE Na_sv_GW 11May2015            :
 energy of atom  1       EATOM=-1305.7875
 kinetic energy error for atom=    0.0318 (will be added to EATOM!!)
  PAW_PBE Nb_sv_GW 05Dec2013            :
 energy of atom  2       EATOM=-1553.9121
 kinetic energy error for atom=    0.0281 (will be added to EATOM!!)
  PAW_PBE O_s_GW 10Jan2007              :
 energy of atom  3       EATOM= -432.3788
 kinetic energy error for atom=    0.0100 (will be added to EATOM!!)
  PAW_PBE F_GW 21Dec2007                :
 energy of atom  4       EATOM= -659.6475
 kinetic energy error for atom=    0.0458 (will be added to EATOM!!)


 POSCAR: Sodium difluorodioxoniobate
  positions in direct lattice
  No initial velocities read in
 exchange correlation table for  LEXCH =        8
   RHO(1)=    0.500       N(1)  =     2000
   RHO(2)=  100.500       N(2)  =     4000



--------------------------------------------------------------------------------------------------------


 ion  position               nearest neighbor table
   1  0.362  0.781  0.119-  19 2.27  24 2.28  17 2.31   9 2.51
   2  0.638  0.219  0.881-  20 2.27  23 2.28  18 2.31  10 2.51
   3  0.638  0.281  0.381-  17 2.27  22 2.28  19 2.31  11 2.51
   4  0.362  0.719  0.619-  18 2.27  21 2.28  20 2.31  12 2.51
   5  0.156  0.266  0.318-  12 1.83  15 1.90  13 1.94  21 2.02  17 2.05   9 2.14
   6  0.844  0.734  0.682-  11 1.83  16 1.90  14 1.94  22 2.02  18 2.05  10 2.14
   7  0.844  0.766  0.182-  10 1.83  13 1.90  15 1.94  23 2.02  19 2.05  11 2.14
   8  0.156  0.234  0.818-   9 1.83  14 1.90  16 1.94  24 2.02  20 2.05  12 2.14
   9  0.180  0.157  0.055-   8 1.83   5 2.14   1 2.51
  10  0.820  0.843  0.945-   7 1.83   6 2.14   2 2.51
  11  0.820  0.657  0.445-   6 1.83   7 2.14   3 2.51
  12  0.180  0.343  0.555-   5 1.83   8 2.14   4 2.51
  13  0.037  0.558  0.212-   7 1.90   5 1.94
  14  0.963  0.442  0.788-   8 1.90   6 1.94
  15  0.963  0.058  0.288-   5 1.90   7 1.94
  16  0.037  0.942  0.712-   6 1.90   8 1.94
  17  0.376  0.453  0.313-   5 2.05   3 2.27   1 2.31
  18  0.624  0.547  0.687-   6 2.05   4 2.27   2 2.31
  19  0.624  0.953  0.187-   7 2.05   1 2.27   3 2.31
  20  0.376  0.047  0.813-   8 2.05   2 2.27   4 2.31
  21  0.316  0.977  0.379-   5 2.02   4 2.28
  22  0.684  0.023  0.621-   6 2.02   3 2.28
  23  0.684  0.477  0.121-   7 2.02   2 2.28
  24  0.316  0.523  0.879-   8 2.02   1 2.28

  LATTYP: Found a simple monoclinic cell.
 ALAT       =     7.6468637410
 B/A-ratio  =     0.7114609108
 C/A-ratio  =     1.0559885630
 COS(beta)  =    -0.2109481049
  
  Lattice vectors:
  
 A1 = (  -1.6007013708,   0.0000000000,   7.4774514505)
 A2 = (   0.0000000000,  -5.4404446419,   0.0000000000)
 A3 = (   8.0749895643,   0.0000000000,  -0.0133825494)


Analysis of symmetry for initial positions (statically):
=====================================================================
 Subroutine PRICEL returns:
 Original cell was already a primitive cell.
 

 Routine SETGRP: Setting up the symmetry group for a 
 simple monoclinic supercell.


 Subroutine GETGRP returns: Found  4 space group operations
 (whereof  2 operations were pure point group operations)
 out of a pool of  4 trial point group operations.


The static configuration has the point symmetry S_2 .
 The point group associated with its full space group is C_2h.


Analysis of symmetry for dynamics (positions and initial velocities):
=====================================================================
 Subroutine PRICEL returns:
 Original cell was already a primitive cell.
 

 Routine SETGRP: Setting up the symmetry group for a 
 simple monoclinic supercell.


 Subroutine GETGRP returns: Found  4 space group operations
 (whereof  2 operations were pure point group operations)
 out of a pool of  4 trial point group operations.


The dynamic configuration has the point symmetry S_2 .
 The point group associated with its full space group is C_2h.


 Subroutine INISYM returns: Found  4 space group operations
 (whereof  2 operations are pure point group operations),
 and found     1 'primitive' translations


----------------------------------------------------------------------------------------

                                     Primitive cell                                     

  volume of cell :     328.3794

  direct lattice vectors                    reciprocal lattice vectors
     8.074989564  0.000000000 -0.013382549     0.123883120 -0.000000000  0.026519715
     0.000000000  5.440444642  0.000000000    -0.000000000  0.183808506 -0.000000000
    -1.600701371  0.000000000  7.477451451     0.000221716 -0.000000000  0.133782868

  length of vectors
     8.075000654  5.440444642  7.646863741     0.126689868  0.183808506  0.133783052

  position of ions in fractional coordinates (direct lattice)
     0.362154135  0.781354522  0.118504183
     0.637845835  0.218645478  0.881495824
     0.637845835  0.281354522  0.381495824
     0.362154135  0.718645478  0.618504176
     0.156312759  0.266187784  0.317895757
     0.843687226  0.733812216  0.682104273
     0.843687226  0.766187784  0.182104243
     0.156312759  0.233812216  0.817895727
     0.179538585  0.156608986  0.055172500
     0.820461415  0.843391029  0.944827478
     0.820461415  0.656608971  0.444827508
     0.179538585  0.343391029  0.555172522
     0.037390272  0.558165073  0.212262687
     0.962609709  0.441834927  0.787737298
     0.962609709  0.058165073  0.287737298
     0.037390272  0.941834927  0.712262702
     0.375603022  0.452933877  0.312885846
     0.624397007  0.547066123  0.687114184
     0.624397007  0.952933877  0.187114154
     0.375603022  0.047066123  0.812885816
     0.315725463  0.977285238  0.378699182
     0.684274537  0.022714762  0.621300818
     0.684274537  0.477285238  0.121300818
     0.315725463  0.522714762  0.878699182

  ion indices of the primitive-cell ions
   primitive index   ion index
                 1           1
                 2           2
                 3           3
                 4           4
                 5           5
                 6           6
                 7           7
                 8           8
                 9           9
                10          10
                11          11
                12          12
                13          13
                14          14
                15          15
                16          16
                17          17
                18          18
                19          19
                20          20
                21          21
                22          22
                23          23
                24          24

----------------------------------------------------------------------------------------



 KPOINTS: NbOF3_W11-333-vasp_21-relcw             

Automatic generation of k-mesh.
 Grid dimensions read from file:
 generate k-points for:    4    6    4

 Generating k-lattice:

  Cartesian coordinates                     Fractional coordinates (reciprocal lattice)
     0.030970780 -0.000000000  0.006629929     0.250000000  0.000000000 -0.000000000
    -0.000000000  0.030634751 -0.000000000     0.000000000  0.166666667  0.000000000
     0.000055429 -0.000000000  0.033445717     0.000000000  0.000000000  0.250000000

  Length of vectors
     0.031672467  0.030634751  0.033445763

  Shift w.r.t. Gamma in fractional coordinates (k-lattice)
     0.500000000  0.500000000  0.500000000

 
 Subroutine IBZKPT returns following result:
 ===========================================
 
 Found     24 irreducible k-points:
 
 Following reciprocal coordinates:
            Coordinates               Weight
  0.125000  0.083333  0.125000      4.000000
  0.375000  0.083333  0.125000      4.000000
 -0.375000  0.083333  0.125000      4.000000
 -0.125000  0.083333  0.125000      4.000000
  0.125000  0.250000  0.125000      4.000000
  0.375000  0.250000  0.125000      4.000000
 -0.375000  0.250000  0.125000      4.000000
 -0.125000  0.250000  0.125000      4.000000
  0.125000  0.416667  0.125000      4.000000
  0.375000  0.416667  0.125000      4.000000
 -0.375000  0.416667  0.125000      4.000000
 -0.125000  0.416667  0.125000      4.000000
  0.125000  0.083333  0.375000      4.000000
  0.375000  0.083333  0.375000      4.000000
 -0.375000  0.083333  0.375000      4.000000
 -0.125000  0.083333  0.375000      4.000000
  0.125000  0.250000  0.375000      4.000000
  0.375000  0.250000  0.375000      4.000000
 -0.375000  0.250000  0.375000      4.000000
 -0.125000  0.250000  0.375000      4.000000
  0.125000  0.416667  0.375000      4.000000
  0.375000  0.416667  0.375000      4.000000
 -0.375000  0.416667  0.375000      4.000000
 -0.125000  0.416667  0.375000      4.000000
 
 Following cartesian coordinates:
            Coordinates               Weight
  0.015513  0.015317  0.020038      4.000000
  0.046484  0.015317  0.026668      4.000000
 -0.046428  0.015317  0.006778      4.000000
 -0.015458  0.015317  0.013408      4.000000
  0.015513  0.045952  0.020038      4.000000
  0.046484  0.045952  0.026668      4.000000
 -0.046428  0.045952  0.006778      4.000000
 -0.015458  0.045952  0.013408      4.000000
  0.015513  0.076587  0.020038      4.000000
  0.046484  0.076587  0.026668      4.000000
 -0.046428  0.076587  0.006778      4.000000
 -0.015458  0.076587  0.013408      4.000000
  0.015569  0.015317  0.053484      4.000000
  0.046539  0.015317  0.060113      4.000000
 -0.046373  0.015317  0.040224      4.000000
 -0.015402  0.015317  0.046854      4.000000
  0.015569  0.045952  0.053484      4.000000
  0.046539  0.045952  0.060113      4.000000
 -0.046373  0.045952  0.040224      4.000000
 -0.015402  0.045952  0.046854      4.000000
  0.015569  0.076587  0.053484      4.000000
  0.046539  0.076587  0.060113      4.000000
 -0.046373  0.076587  0.040224      4.000000
 -0.015402  0.076587  0.046854      4.000000
 
 
 Subroutine IBZKPT_HF returns following result:
 ==============================================
 
 Found     96 k-points in 1st BZ
 the following     96 k-points will be used (e.g. in the exchange kernel)
 Following reciprocal coordinates:   # in IRBZ
  0.125000  0.083333  0.125000    0.01041667   1 t-inv F
  0.375000  0.083333  0.125000    0.01041667   2 t-inv F
 -0.375000  0.083333  0.125000    0.01041667   3 t-inv F
 -0.125000  0.083333  0.125000    0.01041667   4 t-inv F
  0.125000  0.250000  0.125000    0.01041667   5 t-inv F
  0.375000  0.250000  0.125000    0.01041667   6 t-inv F
 -0.375000  0.250000  0.125000    0.01041667   7 t-inv F
 -0.125000  0.250000  0.125000    0.01041667   8 t-inv F
  0.125000  0.416667  0.125000    0.01041667   9 t-inv F
  0.375000  0.416667  0.125000    0.01041667  10 t-inv F
 -0.375000  0.416667  0.125000    0.01041667  11 t-inv F
 -0.125000  0.416667  0.125000    0.01041667  12 t-inv F
  0.125000  0.083333  0.375000    0.01041667  13 t-inv F
  0.375000  0.083333  0.375000    0.01041667  14 t-inv F
 -0.375000  0.083333  0.375000    0.01041667  15 t-inv F
 -0.125000  0.083333  0.375000    0.01041667  16 t-inv F
  0.125000  0.250000  0.375000    0.01041667  17 t-inv F
  0.375000  0.250000  0.375000    0.01041667  18 t-inv F
 -0.375000  0.250000  0.375000    0.01041667  19 t-inv F
 -0.125000  0.250000  0.375000    0.01041667  20 t-inv F
  0.125000  0.416667  0.375000    0.01041667  21 t-inv F
  0.375000  0.416667  0.375000    0.01041667  22 t-inv F
 -0.375000  0.416667  0.375000    0.01041667  23 t-inv F
 -0.125000  0.416667  0.375000    0.01041667  24 t-inv F
 -0.125000 -0.083333 -0.125000    0.01041667   1 t-inv F
 -0.125000  0.083333 -0.125000    0.01041667   1 t-inv F
  0.125000 -0.083333  0.125000    0.01041667   1 t-inv F
 -0.375000 -0.083333 -0.125000    0.01041667   2 t-inv F
 -0.375000  0.083333 -0.125000    0.01041667   2 t-inv F
  0.375000 -0.083333  0.125000    0.01041667   2 t-inv F
  0.375000 -0.083333 -0.125000    0.01041667   3 t-inv F
  0.375000  0.083333 -0.125000    0.01041667   3 t-inv F
 -0.375000 -0.083333  0.125000    0.01041667   3 t-inv F
  0.125000 -0.083333 -0.125000    0.01041667   4 t-inv F
  0.125000  0.083333 -0.125000    0.01041667   4 t-inv F
 -0.125000 -0.083333  0.125000    0.01041667   4 t-inv F
 -0.125000 -0.250000 -0.125000    0.01041667   5 t-inv F
 -0.125000  0.250000 -0.125000    0.01041667   5 t-inv F
  0.125000 -0.250000  0.125000    0.01041667   5 t-inv F
 -0.375000 -0.250000 -0.125000    0.01041667   6 t-inv F
 -0.375000  0.250000 -0.125000    0.01041667   6 t-inv F
  0.375000 -0.250000  0.125000    0.01041667   6 t-inv F
  0.375000 -0.250000 -0.125000    0.01041667   7 t-inv F
  0.375000  0.250000 -0.125000    0.01041667   7 t-inv F
 -0.375000 -0.250000  0.125000    0.01041667   7 t-inv F
  0.125000 -0.250000 -0.125000    0.01041667   8 t-inv F
  0.125000  0.250000 -0.125000    0.01041667   8 t-inv F
 -0.125000 -0.250000  0.125000    0.01041667   8 t-inv F
 -0.125000 -0.416667 -0.125000    0.01041667   9 t-inv F
 -0.125000  0.416667 -0.125000    0.01041667   9 t-inv F
  0.125000 -0.416667  0.125000    0.01041667   9 t-inv F
 -0.375000 -0.416667 -0.125000    0.01041667  10 t-inv F
 -0.375000  0.416667 -0.125000    0.01041667  10 t-inv F
  0.375000 -0.416667  0.125000    0.01041667  10 t-inv F
  0.375000 -0.416667 -0.125000    0.01041667  11 t-inv F
  0.375000  0.416667 -0.125000    0.01041667  11 t-inv F
 -0.375000 -0.416667  0.125000    0.01041667  11 t-inv F
  0.125000 -0.416667 -0.125000    0.01041667  12 t-inv F
  0.125000  0.416667 -0.125000    0.01041667  12 t-inv F
 -0.125000 -0.416667  0.125000    0.01041667  12 t-inv F
 -0.125000 -0.083333 -0.375000    0.01041667  13 t-inv F
 -0.125000  0.083333 -0.375000    0.01041667  13 t-inv F
  0.125000 -0.083333  0.375000    0.01041667  13 t-inv F
 -0.375000 -0.083333 -0.375000    0.01041667  14 t-inv F
 -0.375000  0.083333 -0.375000    0.01041667  14 t-inv F
  0.375000 -0.083333  0.375000    0.01041667  14 t-inv F
  0.375000 -0.083333 -0.375000    0.01041667  15 t-inv F
  0.375000  0.083333 -0.375000    0.01041667  15 t-inv F
 -0.375000 -0.083333  0.375000    0.01041667  15 t-inv F
  0.125000 -0.083333 -0.375000    0.01041667  16 t-inv F
  0.125000  0.083333 -0.375000    0.01041667  16 t-inv F
 -0.125000 -0.083333  0.375000    0.01041667  16 t-inv F
 -0.125000 -0.250000 -0.375000    0.01041667  17 t-inv F
 -0.125000  0.250000 -0.375000    0.01041667  17 t-inv F
  0.125000 -0.250000  0.375000    0.01041667  17 t-inv F
 -0.375000 -0.250000 -0.375000    0.01041667  18 t-inv F
 -0.375000  0.250000 -0.375000    0.01041667  18 t-inv F
  0.375000 -0.250000  0.375000    0.01041667  18 t-inv F
  0.375000 -0.250000 -0.375000    0.01041667  19 t-inv F
  0.375000  0.250000 -0.375000    0.01041667  19 t-inv F
 -0.375000 -0.250000  0.375000    0.01041667  19 t-inv F
  0.125000 -0.250000 -0.375000    0.01041667  20 t-inv F
  0.125000  0.250000 -0.375000    0.01041667  20 t-inv F
 -0.125000 -0.250000  0.375000    0.01041667  20 t-inv F
 -0.125000 -0.416667 -0.375000    0.01041667  21 t-inv F
 -0.125000  0.416667 -0.375000    0.01041667  21 t-inv F
  0.125000 -0.416667  0.375000    0.01041667  21 t-inv F
 -0.375000 -0.416667 -0.375000    0.01041667  22 t-inv F
 -0.375000  0.416667 -0.375000    0.01041667  22 t-inv F
  0.375000 -0.416667  0.375000    0.01041667  22 t-inv F
  0.375000 -0.416667 -0.375000    0.01041667  23 t-inv F
  0.375000  0.416667 -0.375000    0.01041667  23 t-inv F
 -0.375000 -0.416667  0.375000    0.01041667  23 t-inv F
  0.125000 -0.416667 -0.375000    0.01041667  24 t-inv F
  0.125000  0.416667 -0.375000    0.01041667  24 t-inv F
 -0.125000 -0.416667  0.375000    0.01041667  24 t-inv F


--------------------------------------------------------------------------------------------------------




 Dimension of arrays:
   k-points           NKPTS =     24   k-points in BZ     NKDIM =     24   number of bands    NBANDS=    115
   number of dos      NEDOS =    301   number of ions     NIONS =     24
   non local maximal  LDIM  =     10   non local SUM 2l+1 LMDIM =     40
   total plane-waves  NPLWV =  73728
   max r-space proj   IRMAX =   2905   max aug-charges    IRDMAX=   7644
   dimension x,y,z NGX =    48 NGY =   32 NGZ =   48
   dimension x,y,z NGXF=    96 NGYF=   64 NGZF=   96
   support grid    NGXF=    96 NGYF=   64 NGZF=   96
   ions per type =               4   4   8   8
   NGX,Y,Z   is equivalent  to a cutoff of   9.88,  9.78, 10.44 a.u.
   NGXF,Y,Z  is equivalent  to a cutoff of  19.76, 19.56, 20.87 a.u.

 SYSTEM =  unknown system                          
 POSCAR =  Sodium difluorodioxoniobate             

 Startparameter for this run:
   NWRITE =      2    write-flag & timer
   PREC   = n         normal or accurate (medium, high low for compatibility)
   ISTART =      0    job   : 0-new  1-cont  2-samecut
   ICHARG =      2    charge: 1-file 2-atom 10-const
   ISPIN  =      1    spin polarized calculation?
   LNONCOLLINEAR =      F non collinear calculations
   LSORBIT =      F    spin-orbit coupling
   INIWAV =      1    electr: 0-lowe 1-rand  2-diag
   LASPH  =      F    aspherical Exc in radial PAW
 Electronic Relaxation 1
   ENCUT  =  550.0 eV  40.42 Ry    6.36 a.u.  15.44 10.40 14.62*2*pi/ulx,y,z
   ENINI  =  550.0     initial cutoff
   ENAUG  =  985.6 eV  augmentation charge cutoff
   NELM   =     60;   NELMIN=  2; NELMDL= -5     # of ELM steps 
   EDIFF  = 0.1E-07   stopping-criterion for ELM
   LREAL  =      T    real-space projection
   NLSPLINE    = F    spline interpolate recip. space projectors
   LCOMPAT=      F    compatible to vasp.4.4
   GGA_COMPAT  = T    GGA compatible to vasp.4.4-vasp.4.6
   LMAXPAW     = -100 max onsite density
   LMAXMIX     =    2 max onsite mixed and CHGCAR
   VOSKOWN=      0    Vosko Wilk Nusair interpolation
   ROPT   =   -0.00050  -0.00050  -0.00050  -0.00050
 Ionic relaxation
   EDIFFG = 0.1E-06   stopping-criterion for IOM
   NSW    =      0    number of steps for IOM
   NBLOCK =      1;   KBLOCK =      1    inner block; outer block 
   IBRION =     -1    ionic relax: 0-MD 1-quasi-New 2-CG
   NFREE  =      0    steps in history (QN), initial steepest desc. (CG)
   ISIF   =      2    stress and relaxation
   IWAVPR =     10    prediction:  0-non 1-charg 2-wave 3-comb
   ISYM   =      2    0-nonsym 1-usesym 2-fastsym
   LCORR  =      T    Harris-Foulkes like correction to forces

   POTIM  = 0.5000    time-step for ionic-motion
   TEIN   =    0.0    initial temperature
   TEBEG  =    0.0;   TEEND  =   0.0 temperature during run
   SMASS  =  -3.00    Nose mass-parameter (am)
   estimated Nose-frequenzy (Omega)   =  0.10E-29 period in steps = 0.13E+47 mass=  -0.149E-26a.u.
   SCALEE = 1.0000    scale energy and forces
   NPACO  =    256;   APACO  = 16.0  distance and # of slots for P.C.
   PSTRESS=    0.0 pullay stress

  Mass of Ions in am
   POMASS =  22.99 92.91 16.00 19.00
  Ionic Valenz
   ZVAL   =   9.00 13.00  6.00  7.00
  Atomic Wigner-Seitz radii
   RWIGS  =  -1.00 -1.00 -1.00 -1.00
  virtual crystal weights 
   VCA    =   1.00  1.00  1.00  1.00
   NELECT =     192.0000    total number of electrons
   NUPDOWN=      -1.0000    fix difference up-down

 DOS related values:
   EMIN   =  10.00;   EMAX   =-10.00  energy-range for DOS
   EFERMI =   0.00
   ISMEAR =     0;   SIGMA  =   0.01  broadening in eV -4-tet -1-fermi 0-gaus

 Electronic relaxation 2 (details)
   IALGO  =     38    algorithm
   LDIAG  =      T    sub-space diagonalisation (order eigenvalues)
   LSUBROT=      F    optimize rotation matrix (better conditioning)
   TURBO    =      0    0=normal 1=particle mesh
   IRESTART =      0    0=no restart 2=restart with 2 vectors
   NREBOOT  =      0    no. of reboots
   NMIN     =      0    reboot dimension
   EREF     =   0.00    reference energy to select bands
   IMIX   =      4    mixing-type and parameters
     AMIX     =   0.40;   BMIX     =  1.00
     AMIX_MAG =   1.60;   BMIX_MAG =  1.00
     AMIN     =   0.10
     WC   =   100.;   INIMIX=   1;  MIXPRE=   1;  MAXMIX= -45

 Intra band minimization:
   WEIMIN = 0.0000     energy-eigenvalue tresh-hold
   EBREAK =  0.22E-10  absolut break condition
   DEPER  =   0.30     relativ break condition  

   TIME   =   0.40     timestep for ELM

  volume/ion in A,a.u.               =      13.68        92.33
  Fermi-wavevector in a.u.,A,eV,Ry     =   1.368936  2.586915 25.497141  1.873987
  Thomas-Fermi vector in A             =   2.494856

 Write flags
   LWAVE        =      T    write WAVECAR
   LDOWNSAMPLE  =      F    k-point downsampling of WAVECAR
   LCHARG       =      T    write CHGCAR
   LVTOT        =      F    write LOCPOT, total local potential
   LVHAR        =      F    write LOCPOT, Hartree potential only
   LELF         =      F    write electronic localiz. function (ELF)
   LORBIT       =      0    0 simple, 1 ext, 2 COOP (PROOUT), +10 PAW based schemes


 Dipole corrections
   LMONO  =      F    monopole corrections only (constant potential shift)
   LDIPOL =      F    correct potential (dipole corrections)
   IDIPOL =      0    1-x, 2-y, 3-z, 4-all directions 
   EPSILON=  1.0000000 bulk dielectric constant

 Exchange correlation treatment:
   GGA     =    --    GGA type
   LEXCH   =     8    internal setting for exchange type
   VOSKOWN=      0    Vosko Wilk Nusair interpolation
   LHFCALC =     F    Hartree Fock is set to
   LHFONE  =     F    Hartree Fock one center treatment
   AEXX    =    0.0000 exact exchange contribution

 Linear response parameters
   LEPSILON=     F    determine dielectric tensor
   LRPA    =     F    only Hartree local field effects (RPA)
   LNABLA  =     F    use nabla operator in PAW spheres
   LVEL    =     F    velocity operator in full k-point grid
   LINTERFAST=   F  fast interpolation
   KINTER  =     0    interpolate to denser k-point grid
   CSHIFT  =0.1000    complex shift for real part using Kramers Kronig
   OMEGAMAX=  -1.0    maximum frequency
   DEG_THRESHOLD= 0.2000000E-02 threshold for treating states as degnerate
   RTIME   =   -0.100 relaxation time in fs
  (WPLASMAI=    0.000 imaginary part of plasma frequency in eV, 0.658/RTIME)
   DFIELD  = 0.0000000 0.0000000 0.0000000 field for delta impulse in time

 Orbital magnetization related:
   ORBITALMAG=     F  switch on orbital magnetization
   LMAGBLOCH =     F  use Bloch summation to obtain orbital mag.
   LCHIMAG   =     T  perturbation theory with respect to B field
   DQ        =  0.003000  dq finite difference perturbation B field
   LGAUGE    =     T  gauge transformation for 0 moment terms
   NUCIND    =     F  nuclear independent calculation        
   MAGPOS    =    0.0000    0.0000    0.0000  position of magnetic moment in nuclear independent calculation
   MAGATOM   =     0  atom on which magnetic dipole is placed
   JATOM     =     0  atom on which magnetic dipole is evaluated
   MAGDIPOL  =    0.0000    0.0000    0.0000 magnetic dipole

 Orbital magnetization related:
   ORBITALMAG=     F  switch on orbital magnetization
   LCHIMAG   =     T  perturbation theory with respect to B field
   DQ        =  0.003000  dq finite difference perturbation B field
   LLRAUG    =     F  two centre corrections for induced B field



--------------------------------------------------------------------------------------------------------


 Static calculation
 charge density and potential will be updated during run
 non-spin polarized calculation
 Variant of blocked Davidson
 Davidson routine will perform the subspace rotation
 perform sub-space diagonalisation
    after iterative eigenvector-optimisation
 modified Broyden-mixing scheme, WC =      100.0
 initial mixing is a Kerker type mixing with AMIX =  0.4000 and BMIX =      1.0000
 Hartree-type preconditioning will be used
 using additional bands           19
 real space projection scheme for non local part
 use partial core corrections
 calculate Harris-corrections to forces   (improved forces if not selfconsistent)
 use gradient corrections 
 use of overlap-Matrix (Vanderbilt PP)
 Gauss-broadening in eV      SIGMA  =   0.01


--------------------------------------------------------------------------------------------------------


  energy-cutoff  :      550.00
  volume of cell :      328.38
      direct lattice vectors                 reciprocal lattice vectors
     8.074989564  0.000000000 -0.013382549     0.123883120 -0.000000000  0.026519715
     0.000000000  5.440444642  0.000000000    -0.000000000  0.183808506 -0.000000000
    -1.600701371  0.000000000  7.477451451     0.000221716 -0.000000000  0.133782868

  length of vectors
     8.075000654  5.440444642  7.646863741     0.126689868  0.183808506  0.133783052



 k-points in units of 2pi/SCALE and weight: NbOF3_W11-333-vasp_21-relcw             
   0.01551310  0.01531738  0.02003782       0.042
   0.04648388  0.01531738  0.02666775       0.042
  -0.04642846  0.01531738  0.00677797       0.042
  -0.01545768  0.01531738  0.01340789       0.042
   0.01551310  0.04595213  0.02003782       0.042
   0.04648388  0.04595213  0.02666775       0.042
  -0.04642846  0.04595213  0.00677797       0.042
  -0.01545768  0.04595213  0.01340789       0.042
   0.01551310  0.07658688  0.02003782       0.042
   0.04648388  0.07658688  0.02666775       0.042
  -0.04642846  0.07658688  0.00677797       0.042
  -0.01545768  0.07658688  0.01340789       0.042
   0.01556853  0.01531738  0.05348354       0.042
   0.04653931  0.01531738  0.06011347       0.042
  -0.04637303  0.01531738  0.04022368       0.042
  -0.01540225  0.01531738  0.04685361       0.042
   0.01556853  0.04595213  0.05348354       0.042
   0.04653931  0.04595213  0.06011347       0.042
  -0.04637303  0.04595213  0.04022368       0.042
  -0.01540225  0.04595213  0.04685361       0.042
   0.01556853  0.07658688  0.05348354       0.042
   0.04653931  0.07658688  0.06011347       0.042
  -0.04637303  0.07658688  0.04022368       0.042
  -0.01540225  0.07658688  0.04685361       0.042

 k-points in reciprocal lattice and weights: NbOF3_W11-333-vasp_21-relcw             
   0.12500000  0.08333333  0.12500000       0.042
   0.37500000  0.08333333  0.12500000       0.042
  -0.37500000  0.08333333  0.12500000       0.042
  -0.12500000  0.08333333  0.12500000       0.042
   0.12500000  0.25000000  0.12500000       0.042
   0.37500000  0.25000000  0.12500000       0.042
  -0.37500000  0.25000000  0.12500000       0.042
  -0.12500000  0.25000000  0.12500000       0.042
   0.12500000  0.41666667  0.12500000       0.042
   0.37500000  0.41666667  0.12500000       0.042
  -0.37500000  0.41666667  0.12500000       0.042
  -0.12500000  0.41666667  0.12500000       0.042
   0.12500000  0.08333333  0.37500000       0.042
   0.37500000  0.08333333  0.37500000       0.042
  -0.37500000  0.08333333  0.37500000       0.042
  -0.12500000  0.08333333  0.37500000       0.042
   0.12500000  0.25000000  0.37500000       0.042
   0.37500000  0.25000000  0.37500000       0.042
  -0.37500000  0.25000000  0.37500000       0.042
  -0.12500000  0.25000000  0.37500000       0.042
   0.12500000  0.41666667  0.37500000       0.042
   0.37500000  0.41666667  0.37500000       0.042
  -0.37500000  0.41666667  0.37500000       0.042
  -0.12500000  0.41666667  0.37500000       0.042

 position of ions in fractional coordinates (direct lattice) 
   0.36215413  0.78135452  0.11850418
   0.63784584  0.21864548  0.88149582
   0.63784584  0.28135452  0.38149582
   0.36215413  0.71864548  0.61850418
   0.15631276  0.26618778  0.31789576
   0.84368723  0.73381222  0.68210427
   0.84368723  0.76618778  0.18210424
   0.15631276  0.23381222  0.81789573
   0.17953859  0.15660899  0.05517250
   0.82046141  0.84339103  0.94482748
   0.82046141  0.65660897  0.44482751
   0.17953859  0.34339103  0.55517252
   0.03739027  0.55816507  0.21226269
   0.96260971  0.44183493  0.78773730
   0.96260971  0.05816507  0.28773730
   0.03739027  0.94183493  0.71226270
   0.37560302  0.45293388  0.31288585
   0.62439701  0.54706612  0.68711418
   0.62439701  0.95293388  0.18711415
   0.37560302  0.04706612  0.81288582
   0.31572546  0.97728524  0.37869918
   0.68427454  0.02271476  0.62130082
   0.68427454  0.47728524  0.12130082
   0.31572546  0.52271476  0.87869918

 position of ions in cartesian coordinates  (Angst):
   2.73470105  4.25091602  0.88126273
   3.73958689  1.18952862  6.58280623
   4.53993757  1.53069370  2.84408050
   1.93435038  3.90975094  4.61998840
   0.75336772  1.44817990  2.37495823
   5.72092030  3.99226474  5.08911090
   6.52127104  4.16840222  1.35038495
  -0.04698292  1.27204242  6.11368373
   1.36145751  0.85202252  0.41014701
   5.11283072  4.58842221  7.05392173
   5.91318136  3.57224476  3.31519623
   0.56110678  1.86819989  4.14887290
  -0.03784312  3.03666618  1.58668356
   6.51213118  2.40377846  5.87738523
   7.31248187  0.31644386  2.13865950
  -0.83819383  5.12400078  5.32540940
   2.53215368  2.46416169  2.33456220
   3.94213470  2.97628296  5.12950693
   4.74248544  5.18438401  1.39078098
   1.73180304  0.25606064  6.07328770
   1.94329552  5.31686624  2.82747954
   4.53099267  0.12357841  4.63658936
   5.33134336  2.59664391  0.89786364
   1.14294483  2.84380073  6.56620526



--------------------------------------------------------------------------------------------------------


 k-point   1 :   0.1250 0.0833 0.1250  plane waves:    9633
 k-point   2 :   0.3750 0.0833 0.1250  plane waves:    9627
 k-point   3 :  -0.3750 0.0833 0.1250  plane waves:    9619
 k-point   4 :  -0.1250 0.0833 0.1250  plane waves:    9631
 k-point   5 :   0.1250 0.2500 0.1250  plane waves:    9625
 k-point   6 :   0.3750 0.2500 0.1250  plane waves:    9611
 k-point   7 :  -0.3750 0.2500 0.1250  plane waves:    9610
 k-point   8 :  -0.1250 0.2500 0.1250  plane waves:    9618
 k-point   9 :   0.1250 0.4167 0.1250  plane waves:    9614
 k-point  10 :   0.3750 0.4167 0.1250  plane waves:    9631
 k-point  11 :  -0.3750 0.4167 0.1250  plane waves:    9609
 k-point  12 :  -0.1250 0.4167 0.1250  plane waves:    9608
 k-point  13 :   0.1250 0.0833 0.3750  plane waves:    9634
 k-point  14 :   0.3750 0.0833 0.3750  plane waves:    9620
 k-point  15 :  -0.3750 0.0833 0.3750  plane waves:    9620
 k-point  16 :  -0.1250 0.0833 0.3750  plane waves:    9629
 k-point  17 :   0.1250 0.2500 0.3750  plane waves:    9626
 k-point  18 :   0.3750 0.2500 0.3750  plane waves:    9604
 k-point  19 :  -0.3750 0.2500 0.3750  plane waves:    9620
 k-point  20 :  -0.1250 0.2500 0.3750  plane waves:    9625
 k-point  21 :   0.1250 0.4167 0.3750  plane waves:    9599
 k-point  22 :   0.3750 0.4167 0.3750  plane waves:    9606
 k-point  23 :  -0.3750 0.4167 0.3750  plane waves:    9589
 k-point  24 :  -0.1250 0.4167 0.3750  plane waves:    9597

 maximum and minimum number of plane-waves per node :      9634     9589

 maximum number of plane-waves:      9634
 maximum index in each direction: 
   IXMAX=   15   IYMAX=   10   IZMAX=   14
   IXMIN=  -15   IYMIN=  -10   IZMIN=  -14


 serial   3D FFT for wavefunctions
 parallel 3D FFT for charge:
    minimum data exchange during FFTs selected (reduces bandwidth)


 total amount of memory used by VASP MPI-rank0   551159. kBytes
=======================================================================

   base      :      30000. kBytes
   nonlr-proj:       9771. kBytes
   fftplans  :      20492. kBytes
   grid      :      46129. kBytes
   one-center:       1843. kBytes
   wavefun   :     442924. kBytes

     INWAV:  cpu time    0.0000: real time    0.0000
 Broyden mixing: mesh for mixing (old mesh)
   NGX = 31   NGY = 21   NGZ = 29
  (NGX  = 96   NGY  = 64   NGZ  = 96)
  gives a total of  18879 points

 initial charge density was supplied:
 charge density of overlapping atoms calculated
 number of electron     192.0000000 magnetization 
 keeping initial charge density in first step


--------------------------------------------------------------------------------------------------------


 Maximum index for non-local projection operator         2774
 Maximum index for augmentation-charges         7243 (set IRDMAX)


--------------------------------------------------------------------------------------------------------


 First call to EWALD:  gamma=   0.257
 Maximum number of real-space cells 2x 3x 3
 Maximum number of reciprocal cells 3x 2x 3

    FEWALD:  cpu time    0.0060: real time    0.0060


--------------------------------------- Iteration      1(   1)  ---------------------------------------


    POTLOK:  cpu time    0.3843: real time    0.3843
    SETDIJ:  cpu time    0.0439: real time    0.0439
     EDDAV:  cpu time   50.1685: real time   50.1737
       DOS:  cpu time    0.0025: real time    0.0025
    --------------------------------------------
      LOOP:  cpu time   50.5994: real time   50.6045

 eigenvalue-minimisations  :  5560
 total energy-change (2. order) : 0.3513337E+04  (-0.1032355E+05)
 number of electron     192.0000000 magnetization 
 augmentation part      192.0000000 magnetization 

 Free energy of the ion-electron system (eV)
  ---------------------------------------------------
  alpha Z        PSCENC =       619.41948878
  Ewald energy   TEWEN  =    -12552.53435667
  -Hartree energ DENC   =     -5904.66227704
  -exchange      EXHF   =         0.00000000
  -V(xc)+E(xc)   XCENC  =       948.46628101
  PAW double counting   =     15344.41123578   -16066.60662730
  entropy T*S    EENTRO =        -0.00023711
  eigenvalues    EBANDS =       950.52079814
  atomic energy  EATOM  =     20174.32265256
  Solvation  Ediel_sol  =         0.00000000
  ---------------------------------------------------
  free energy    TOTEN  =      3513.33695815 eV

  energy without entropy =     3513.33719526  energy(sigma->0) =     3513.33707670


--------------------------------------------------------------------------------------------------------




--------------------------------------- Iteration      1(   2)  ---------------------------------------


     EDDAV:  cpu time   52.3389: real time   52.3440
       DOS:  cpu time    0.0021: real time    0.0021
    --------------------------------------------
      LOOP:  cpu time   52.3410: real time   52.3461

 eigenvalue-minimisations  :  5532
 total energy-change (2. order) :-0.3080240E+04  (-0.2890593E+04)
 number of electron     192.0000000 magnetization 
 augmentation part      192.0000000 magnetization 

 Free energy of the ion-electron system (eV)
  ---------------------------------------------------
  alpha Z        PSCENC =       619.41948878
  Ewald energy   TEWEN  =    -12552.53435667
  -Hartree energ DENC   =     -5904.66227704
  -exchange      EXHF   =         0.00000000
  -V(xc)+E(xc)   XCENC  =       948.46628101
  PAW double counting   =     15344.41123578   -16066.60662730
  entropy T*S    EENTRO =        -0.00000515
  eigenvalues    EBANDS =     -2129.71975421
  atomic energy  EATOM  =     20174.32265256
  Solvation  Ediel_sol  =         0.00000000
  ---------------------------------------------------
  free energy    TOTEN  =       433.09663776 eV

  energy without entropy =      433.09664290  energy(sigma->0) =      433.09664033


--------------------------------------------------------------------------------------------------------




--------------------------------------- Iteration      1(   3)  ---------------------------------------


     EDDAV:  cpu time   74.8575: real time   74.8645
       DOS:  cpu time    0.0007: real time    0.0007
    --------------------------------------------
      LOOP:  cpu time   74.8582: real time   74.8651

 eigenvalue-minimisations  :  8791
 total energy-change (2. order) :-0.6272667E+03  (-0.6138906E+03)
 number of electron     192.0000000 magnetization 
 augmentation part      192.0000000 magnetization 

 Free energy of the ion-electron system (eV)
  ---------------------------------------------------
  alpha Z        PSCENC =       619.41948878
  Ewald energy   TEWEN  =    -12552.53435667
  -Hartree energ DENC   =     -5904.66227704
  -exchange      EXHF   =         0.00000000
  -V(xc)+E(xc)   XCENC  =       948.46628101
  PAW double counting   =     15344.41123578   -16066.60662730
  entropy T*S    EENTRO =        -0.00000000
  eigenvalues    EBANDS =     -2756.98647766
  atomic energy  EATOM  =     20174.32265256
  Solvation  Ediel_sol  =         0.00000000
  ---------------------------------------------------
  free energy    TOTEN  =      -194.17008054 eV

  energy without entropy =     -194.17008054  energy(sigma->0) =     -194.17008054


--------------------------------------------------------------------------------------------------------




--------------------------------------- Iteration      1(   4)  ---------------------------------------


     EDDAV:  cpu time   73.4730: real time   73.4792
       DOS:  cpu time    0.0007: real time    0.0007
    --------------------------------------------
      LOOP:  cpu time   73.4738: real time   73.4800

 eigenvalue-minimisations  :  8592
 total energy-change (2. order) :-0.3608717E+02  (-0.3587950E+02)
 number of electron     192.0000000 magnetization 
 augmentation part      192.0000000 magnetization 

 Free energy of the ion-electron system (eV)
  ---------------------------------------------------
  alpha Z        PSCENC =       619.41948878
  Ewald energy   TEWEN  =    -12552.53435667
  -Hartree energ DENC   =     -5904.66227704
  -exchange      EXHF   =         0.00000000
  -V(xc)+E(xc)   XCENC  =       948.46628101
  PAW double counting   =     15344.41123578   -16066.60662730
  entropy T*S    EENTRO =        -0.00000000
  eigenvalues    EBANDS =     -2793.07365252
  atomic energy  EATOM  =     20174.32265256
  Solvation  Ediel_sol  =         0.00000000
  ---------------------------------------------------
  free energy    TOTEN  =      -230.25725540 eV

  energy without entropy =     -230.25725540  energy(sigma->0) =     -230.25725540


--------------------------------------------------------------------------------------------------------




--------------------------------------- Iteration      1(   5)  ---------------------------------------


     EDDAV:  cpu time   81.3748: real time   81.3816
       DOS:  cpu time    0.0008: real time    0.0007
    CHARGE:  cpu time    2.8366: real time    2.8369
    MIXING:  cpu time    0.0125: real time    0.0125
    --------------------------------------------
      LOOP:  cpu time   84.2247: real time   84.2318

 eigenvalue-minimisations  :  8736
 total energy-change (2. order) :-0.9756352E+00  (-0.9705912E+00)
 number of electron     191.9999996 magnetization 
 augmentation part       28.9685196 magnetization 

 Broyden mixing:
  rms(total) = 0.49895E+01    rms(broyden)= 0.49891E+01
  rms(prec ) = 0.67326E+01
  weight for this iteration     100.00

 Free energy of the ion-electron system (eV)
  ---------------------------------------------------
  alpha Z        PSCENC =       619.41948878
  Ewald energy   TEWEN  =    -12552.53435667
  -Hartree energ DENC   =     -5904.66227704
  -exchange      EXHF   =         0.00000000
  -V(xc)+E(xc)   XCENC  =       948.46628101
  PAW double counting   =     15344.41123578   -16066.60662730
  entropy T*S    EENTRO =        -0.00000000
  eigenvalues    EBANDS =     -2794.04928773
  atomic energy  EATOM  =     20174.32265256
  Solvation  Ediel_sol  =         0.00000000
  ---------------------------------------------------
  free energy    TOTEN  =      -231.23289062 eV

  energy without entropy =     -231.23289062  energy(sigma->0) =     -231.23289062


--------------------------------------------------------------------------------------------------------




--------------------------------------- Iteration      1(   6)  ---------------------------------------


    POTLOK:  cpu time    0.4231: real time    0.4231
    SETDIJ:  cpu time    0.0457: real time    0.0457
     EDDAV:  cpu time   89.6922: real time   89.6999
       DOS:  cpu time    0.0008: real time    0.0008
    CHARGE:  cpu time    2.5406: real time    2.5408
    MIXING:  cpu time    0.0103: real time    0.0103
    --------------------------------------------
      LOOP:  cpu time   92.7126: real time   92.7205

 eigenvalue-minimisations  :  9296
 total energy-change (2. order) : 0.4777749E+02  (-0.2002977E+02)
 number of electron     191.9999999 magnetization 
 augmentation part       24.9445234 magnetization 

 Broyden mixing:
  rms(total) = 0.18565E+01    rms(broyden)= 0.18560E+01
  rms(prec ) = 0.22437E+01
  weight for this iteration     100.00

 eigenvalues of (default mixing * dielectric matrix)
  average eigenvalue GAMMA=   0.9603
  0.9603

 Free energy of the ion-electron system (eV)
  ---------------------------------------------------
  alpha Z        PSCENC =       619.41948878
  Ewald energy   TEWEN  =    -12552.53435667
  -Hartree energ DENC   =     -6023.25004419
  -exchange      EXHF   =         0.00000000
  -V(xc)+E(xc)   XCENC  =       962.29960352
  PAW double counting   =     16229.47274820   -16963.41308681
  entropy T*S    EENTRO =        -0.00000000
  eigenvalues    EBANDS =     -2629.77240647
  atomic energy  EATOM  =     20174.32265256
  Solvation  Ediel_sol  =         0.00000000
  ---------------------------------------------------
  free energy    TOTEN  =      -183.45540108 eV

  energy without entropy =     -183.45540108  energy(sigma->0) =     -183.45540108


--------------------------------------------------------------------------------------------------------




--------------------------------------- Iteration      1(   7)  ---------------------------------------


    POTLOK:  cpu time    0.3658: real time    0.3658
    SETDIJ:  cpu time    0.0444: real time    0.0444
     EDDAV:  cpu time   78.4881: real time   78.4948
       DOS:  cpu time    0.0007: real time    0.0007
    CHARGE:  cpu time    2.5708: real time    2.5711
    MIXING:  cpu time    0.0105: real time    0.0105
    --------------------------------------------
      LOOP:  cpu time   81.4803: real time   81.4873

 eigenvalue-minimisations  :  8048
 total energy-change (2. order) : 0.3784599E+00  (-0.3279603E+01)
 number of electron     191.9999999 magnetization 
 augmentation part       25.6307919 magnetization 

 Broyden mixing:
  rms(total) = 0.39977E+01    rms(broyden)= 0.39977E+01
  rms(prec ) = 0.40358E+01
  weight for this iteration     100.00

 eigenvalues of (default mixing * dielectric matrix)
  average eigenvalue GAMMA=   0.7206
  0.8416  0.5996

 Free energy of the ion-electron system (eV)
  ---------------------------------------------------
  alpha Z        PSCENC =       619.41948878
  Ewald energy   TEWEN  =    -12552.53435667
  -Hartree energ DENC   =     -5970.61851838
  -exchange      EXHF   =         0.00000000
  -V(xc)+E(xc)   XCENC  =       958.91233457
  PAW double counting   =     16441.77505703   -17171.42953497
  entropy T*S    EENTRO =        -0.00000000
  eigenvalues    EBANDS =     -2682.92406412
  atomic energy  EATOM  =     20174.32265256
  Solvation  Ediel_sol  =         0.00000000
  ---------------------------------------------------
  free energy    TOTEN  =      -183.07694118 eV

  energy without entropy =     -183.07694118  energy(sigma->0) =     -183.07694118


--------------------------------------------------------------------------------------------------------




--------------------------------------- Iteration      1(   8)  ---------------------------------------


    POTLOK:  cpu time    0.3670: real time    0.3671
    SETDIJ:  cpu time    0.0449: real time    0.0449
     EDDAV:  cpu time   77.1873: real time   77.1939
       DOS:  cpu time    0.0007: real time    0.0007
    CHARGE:  cpu time    2.4724: real time    2.4726
    MIXING:  cpu time    0.0103: real time    0.0103
    --------------------------------------------
      LOOP:  cpu time   80.0826: real time   80.0895

 eigenvalue-minimisations  :  8736
 total energy-change (2. order) :-0.4033243E+00  (-0.1942685E+00)
 number of electron     191.9999998 magnetization 
 augmentation part       25.4642095 magnetization 

 Broyden mixing:
  rms(total) = 0.50513E+01    rms(broyden)= 0.50513E+01
  rms(prec ) = 0.50930E+01
  weight for this iteration     100.00

 eigenvalues of (default mixing * dielectric matrix)
  average eigenvalue GAMMA=   1.1257
  1.8827  0.7472  0.7472

 Free energy of the ion-electron system (eV)
  ---------------------------------------------------
  alpha Z        PSCENC =       619.41948878
  Ewald energy   TEWEN  =    -12552.53435667
  -Hartree energ DENC   =     -5978.23106034
  -exchange      EXHF   =         0.00000000
  -V(xc)+E(xc)   XCENC  =       959.31092052
  PAW double counting   =     16330.05186300   -17060.14773349
  entropy T*S    EENTRO =        -0.00000000
  eigenvalues    EBANDS =     -2675.67203979
  atomic energy  EATOM  =     20174.32265256
  Solvation  Ediel_sol  =         0.00000000
  ---------------------------------------------------
  free energy    TOTEN  =      -183.48026544 eV

  energy without entropy =     -183.48026544  energy(sigma->0) =     -183.48026544


--------------------------------------------------------------------------------------------------------




--------------------------------------- Iteration      1(   9)  ---------------------------------------


    POTLOK:  cpu time    0.3389: real time    0.3390
    SETDIJ:  cpu time    0.0436: real time    0.0436
     EDDAV:  cpu time   76.3562: real time   76.3627
       DOS:  cpu time    0.0007: real time    0.0007
    CHARGE:  cpu time    2.4108: real time    2.4111
    MIXING:  cpu time    0.0106: real time    0.0106
    --------------------------------------------
      LOOP:  cpu time   79.1609: real time   79.1676

 eigenvalue-minimisations  :  9328
 total energy-change (2. order) : 0.2134816E+00  (-0.3117147E+00)
 number of electron     191.9999997 magnetization 
 augmentation part       25.4265751 magnetization 

 Broyden mixing:
  rms(total) = 0.19842E+01    rms(broyden)= 0.19842E+01
  rms(prec ) = 0.20404E+01
  weight for this iteration     100.00

 eigenvalues of (default mixing * dielectric matrix)
  average eigenvalue GAMMA=   1.0669
  1.5201  1.5201  0.8050  0.4224

 Free energy of the ion-electron system (eV)
  ---------------------------------------------------
  alpha Z        PSCENC =       619.41948878
  Ewald energy   TEWEN  =    -12552.53435667
  -Hartree energ DENC   =     -5960.39702283
  -exchange      EXHF   =         0.00000000
  -V(xc)+E(xc)   XCENC  =       959.00918251
  PAW double counting   =     17026.75918439   -17755.85250998
  entropy T*S    EENTRO =        -0.00000000
  eigenvalues    EBANDS =     -2693.99340261
  atomic energy  EATOM  =     20174.32265256
  Solvation  Ediel_sol  =         0.00000000
  ---------------------------------------------------
  free energy    TOTEN  =      -183.26678384 eV

  energy without entropy =     -183.26678384  energy(sigma->0) =     -183.26678384


--------------------------------------------------------------------------------------------------------




--------------------------------------- Iteration      1(  10)  ---------------------------------------


    POTLOK:  cpu time    0.3302: real time    0.3302
    SETDIJ:  cpu time    0.0442: real time    0.0442
     EDDAV:  cpu time   74.7623: real time   74.7687
       DOS:  cpu time    0.0007: real time    0.0007
    CHARGE:  cpu time    2.4160: real time    2.4162
    MIXING:  cpu time    0.0112: real time    0.0112
    --------------------------------------------
      LOOP:  cpu time   77.5646: real time   77.5713

 eigenvalue-minimisations  :  9504
 total energy-change (2. order) : 0.3912058E+00  (-0.6324794E-01)
 number of electron     191.9999997 magnetization 
 augmentation part       25.4504848 magnetization 

 Broyden mixing:
  rms(total) = 0.22968E+01    rms(broyden)= 0.22968E+01
  rms(prec ) = 0.23126E+01
  weight for this iteration     100.00

 eigenvalues of (default mixing * dielectric matrix)
  average eigenvalue GAMMA=   1.0893
  2.1325  1.4585  0.8562  0.4996  0.4996

 Free energy of the ion-electron system (eV)
  ---------------------------------------------------
  alpha Z        PSCENC =       619.41948878
  Ewald energy   TEWEN  =    -12552.53435667
  -Hartree energ DENC   =     -5956.89860852
  -exchange      EXHF   =         0.00000000
  -V(xc)+E(xc)   XCENC  =       958.52556309
  PAW double counting   =     17038.02226480   -17766.50358510
  entropy T*S    EENTRO =        -0.00000000
  eigenvalues    EBANDS =     -2697.22899699
  atomic energy  EATOM  =     20174.32265256
  Solvation  Ediel_sol  =         0.00000000
  ---------------------------------------------------
  free energy    TOTEN  =      -182.87557805 eV

  energy without entropy =     -182.87557805  energy(sigma->0) =     -182.87557805


--------------------------------------------------------------------------------------------------------




--------------------------------------- Iteration      1(  11)  ---------------------------------------


    POTLOK:  cpu time    0.3301: real time    0.3301
    SETDIJ:  cpu time    0.0437: real time    0.0437
     EDDAV:  cpu time   64.1364: real time   64.1419
       DOS:  cpu time    0.0007: real time    0.0007
    CHARGE:  cpu time    2.4265: real time    2.4267
    MIXING:  cpu time    0.0111: real time    0.0111
    --------------------------------------------
      LOOP:  cpu time   66.9485: real time   66.9543

 eigenvalue-minimisations  :  7904
 total energy-change (2. order) : 0.5812699E-01  (-0.4058473E-01)
 number of electron     191.9999998 magnetization 
 augmentation part       25.5255640 magnetization 

 Broyden mixing:
  rms(total) = 0.16878E+01    rms(broyden)= 0.16878E+01
  rms(prec ) = 0.16931E+01
  weight for this iteration     100.00

 eigenvalues of (default mixing * dielectric matrix)
  average eigenvalue GAMMA=   1.0091
  2.2097  1.3565  0.8630  0.4461  0.5895  0.5895

 Free energy of the ion-electron system (eV)
  ---------------------------------------------------
  alpha Z        PSCENC =       619.41948878
  Ewald energy   TEWEN  =    -12552.53435667
  -Hartree energ DENC   =     -5955.24127070
  -exchange      EXHF   =         0.00000000
  -V(xc)+E(xc)   XCENC  =       958.36035260
  PAW double counting   =     17154.02085511   -17881.99074150
  entropy T*S    EENTRO =        -0.00000000
  eigenvalues    EBANDS =     -2699.17443124
  atomic energy  EATOM  =     20174.32265256
  Solvation  Ediel_sol  =         0.00000000
  ---------------------------------------------------
  free energy    TOTEN  =      -182.81745106 eV

  energy without entropy =     -182.81745106  energy(sigma->0) =     -182.81745106


--------------------------------------------------------------------------------------------------------




--------------------------------------- Iteration      1(  12)  ---------------------------------------


    POTLOK:  cpu time    0.3278: real time    0.3279
    SETDIJ:  cpu time    0.0431: real time    0.0431
     EDDAV:  cpu time   68.6962: real time   68.7026
       DOS:  cpu time    0.0007: real time    0.0007
    CHARGE:  cpu time    2.5197: real time    2.5199
    MIXING:  cpu time    0.0144: real time    0.0144
    --------------------------------------------
      LOOP:  cpu time   71.6020: real time   71.6086

 eigenvalue-minimisations  :  8576
 total energy-change (2. order) :-0.2138272E-01  (-0.2070057E-02)
 number of electron     191.9999997 magnetization 
 augmentation part       25.5172509 magnetization 

 Broyden mixing:
  rms(total) = 0.14553E+01    rms(broyden)= 0.14553E+01
  rms(prec ) = 0.14638E+01
  weight for this iteration     100.00

 eigenvalues of (default mixing * dielectric matrix)
  average eigenvalue GAMMA=   1.1963
  2.3729  1.5100  1.5100  0.8805  0.8805  0.6102  0.6102

 Free energy of the ion-electron system (eV)
  ---------------------------------------------------
  alpha Z        PSCENC =       619.41948878
  Ewald energy   TEWEN  =    -12552.53435667
  -Hartree energ DENC   =     -5957.14467241
  -exchange      EXHF   =         0.00000000
  -V(xc)+E(xc)   XCENC  =       958.49298413
  PAW double counting   =     17171.13705842   -17899.10087014
  entropy T*S    EENTRO =        -0.00000000
  eigenvalues    EBANDS =     -2697.43111845
  atomic energy  EATOM  =     20174.32265256
  Solvation  Ediel_sol  =         0.00000000
  ---------------------------------------------------
  free energy    TOTEN  =      -182.83883377 eV

  energy without entropy =     -182.83883377  energy(sigma->0) =     -182.83883377


--------------------------------------------------------------------------------------------------------




--------------------------------------- Iteration      1(  13)  ---------------------------------------


    POTLOK:  cpu time    0.3990: real time    0.3990
    SETDIJ:  cpu time    0.0480: real time    0.0480
     EDDAV:  cpu time   71.5885: real time   71.5946
       DOS:  cpu time    0.0008: real time    0.0008
    CHARGE:  cpu time    2.3662: real time    2.3665
    MIXING:  cpu time    0.0112: real time    0.0112
    --------------------------------------------
      LOOP:  cpu time   74.4137: real time   74.4201

 eigenvalue-minimisations  :  8736
 total energy-change (2. order) : 0.1024354E-01  (-0.8739322E-03)
 number of electron     191.9999998 magnetization 
 augmentation part       25.5134107 magnetization 

 Broyden mixing:
  rms(total) = 0.81098E+00    rms(broyden)= 0.81098E+00
  rms(prec ) = 0.82305E+00
  weight for this iteration     100.00

 eigenvalues of (default mixing * dielectric matrix)
  average eigenvalue GAMMA=   1.2347
  2.5226  2.0877  1.5522  1.0318  0.8091  0.5505  0.6620  0.6620

 Free energy of the ion-electron system (eV)
  ---------------------------------------------------
  alpha Z        PSCENC =       619.41948878
  Ewald energy   TEWEN  =    -12552.53435667
  -Hartree energ DENC   =     -5959.00494648
  -exchange      EXHF   =         0.00000000
  -V(xc)+E(xc)   XCENC  =       958.58609147
  PAW double counting   =     17243.75324807   -17971.53136387
  entropy T*S    EENTRO =        -0.00000000
  eigenvalues    EBANDS =     -2695.83940410
  atomic energy  EATOM  =     20174.32265256
  Solvation  Ediel_sol  =         0.00000000
  ---------------------------------------------------
  free energy    TOTEN  =      -182.82859023 eV

  energy without entropy =     -182.82859023  energy(sigma->0) =     -182.82859023


[...]
    18     -0.276984E+01      0.124843E+01     -0.609619E+02
    19     -0.213229E+01     -0.131071E+01     -0.602285E+02
    20     -0.213228E+01     -0.131093E+01     -0.602282E+02
    21     -0.474735E+01      0.101437E+02     -0.536403E+02
    22     -0.474735E+01      0.101436E+02     -0.536403E+02
    23     -0.367545E+01     -0.930852E+01     -0.527581E+02
    24     -0.367544E+01     -0.930851E+01     -0.527578E+02

 -------------------------------------------------------------
   one center paramagnetic contribution
 -------------------------------------------------------------
     1     -0.139020E+01     -0.446062E+01      0.542848E+02
     2     -0.139019E+01     -0.446064E+01      0.542849E+02
     3     -0.147226E+01      0.474177E+01      0.547817E+02
     4     -0.147225E+01      0.474179E+01      0.547817E+02
     5     -0.413431E+02     -0.985187E+02      0.291249E+04
     6     -0.413422E+02     -0.985195E+02      0.291250E+04
     7     -0.456048E+02      0.100119E+03      0.291338E+04
     8     -0.456038E+02      0.100120E+03      0.291338E+04
     9      0.529914E+02      0.835891E+02      0.288492E+03
    10      0.529913E+02      0.835885E+02      0.288491E+03
    11      0.548557E+02     -0.833726E+02      0.257950E+03
    12      0.548557E+02     -0.833719E+02      0.257948E+03
    13     -0.683970E+02      0.794442E+02      0.756690E+03
    14     -0.683971E+02      0.794441E+02      0.756688E+03
    15     -0.615467E+02     -0.743453E+02      0.761102E+03
    16     -0.615467E+02     -0.743451E+02      0.761101E+03
    17     -0.130785E+02      0.442734E+01      0.299158E+03
    18     -0.130785E+02      0.442755E+01      0.299159E+03
    19     -0.957642E+01     -0.390744E+01      0.302516E+03
    20     -0.957642E+01     -0.390838E+01      0.302517E+03
    21     -0.259556E+02      0.472980E+02      0.335791E+03
    22     -0.259556E+02      0.472977E+02      0.335791E+03
    23     -0.215815E+02     -0.426942E+02      0.339791E+03
    24     -0.215815E+02     -0.426942E+02      0.339792E+03

 -------------------------------------------------------------
   one center diamagnetic contribution
 -------------------------------------------------------------
     1     -0.521950E-02      0.252223E-01     -0.153644E+03
     2     -0.521958E-02      0.252223E-01     -0.153644E+03
     3     -0.537145E-02     -0.250617E-01     -0.153644E+03
     4     -0.537160E-02     -0.250617E-01     -0.153644E+03
     5      0.114093E-01      0.326385E-01      0.148679E+02
     6      0.114089E-01      0.326388E-01      0.148679E+02
     7      0.101080E-01     -0.320456E-01      0.148675E+02
     8      0.101075E-01     -0.320461E-01      0.148675E+02
     9      0.697400E-01     -0.818310E-01     -0.331431E+02
    10      0.697401E-01     -0.818311E-01     -0.331432E+02
    11      0.676098E-01      0.794458E-01     -0.331406E+02
    12      0.676099E-01      0.794456E-01     -0.331406E+02
    13     -0.349344E-01     -0.187742E-01     -0.331757E+02
    14     -0.349348E-01     -0.187739E-01     -0.331757E+02
    15     -0.303210E-01      0.164377E-01     -0.331788E+02
    16     -0.303211E-01      0.164378E-01     -0.331788E+02
    17     -0.321211E-01      0.180967E-01     -0.417375E+02
    18     -0.321215E-01      0.180966E-01     -0.417375E+02
    19     -0.312655E-01     -0.176304E-01     -0.417361E+02
    20     -0.312662E-01     -0.176307E-01     -0.417362E+02
    21     -0.496577E-01      0.129412E+00     -0.417350E+02
    22     -0.496579E-01      0.129412E+00     -0.417350E+02
    23     -0.484395E-01     -0.130419E+00     -0.417301E+02
    24     -0.484399E-01     -0.130420E+00     -0.417301E+02
 -------------------------------------------------------------
 -------------------------------------------------------------


 -------------------------------------------------------------
  Absolute Chemical Shift tensors
 -------------------------------------------------------------
  UNSYMMETRIZED TENSORS 
 ion    1
       -183.521591         -4.457606         -1.663782
         -4.127270       -192.033041         -7.060509
         -1.007603         -5.080213       -189.842368
 ion    2
       -183.521521         -4.457631         -1.663788
         -4.127298       -192.032978         -7.060533
         -1.007594         -5.080236       -189.842329
 ion    3
       -183.494897          4.561647         -1.007269
          3.610185       -192.001342          7.128550
         -1.070611          5.249982       -189.290262
 ion    4
       -183.494850          4.561604         -1.007265
          3.610148       -192.001333          7.128529
         -1.070595          5.249997       -189.290244
 ion    5
       3318.747246          2.717906        -49.132153
        -71.072473       3296.781283        -10.111363
        -44.541205       -107.413538       2967.185577
 ion    6
       3318.754373          2.717017        -49.130486
        -71.068535       3296.787405        -10.112170
        -44.540287       -107.414459       2967.189654
 ion    7
       3377.689542         11.886765        -18.480828
         80.250804       3333.115733         24.717804
        -48.913053        109.011354       2967.504974
 ion    8
       3377.692278         11.884737        -18.479409
         80.248900       3333.119027         24.720886
        -48.911904        109.012286       2967.500238
 ion    9
        748.615421        -60.463586         45.010342
        -47.821183        774.575742        141.415360
         62.378760         99.784577        216.034693
 ion   10
        748.610231        -60.463190         45.009931
        -47.820248        774.570264        141.414290
         62.378621         99.783746        216.033464
 ion   11
        781.552222         33.389786         58.067811
         45.293145        774.121472       -139.591609
         64.658929        -99.299579        179.513320
 ion   12
        781.547669         33.389513         58.067351
         45.293282        774.116079       -139.590475
         64.658948        -99.298820        179.511442
 ion   13
        466.516842        215.707384        -99.759362
        182.238853        456.771042        100.609218
        -81.340305         93.537849        771.508667
 ion   14
        466.515605        215.705280        -99.759413
        182.237202        456.769361        100.608634
        -81.340424         93.537736        771.506096
 ion   15
        449.580820       -233.385070        -99.261119
       -182.531800        458.757477        -96.684948
        -73.213138        -87.195719        776.831298
 ion   16
        449.580381       -233.383724        -99.261336
       -182.530448        458.756765        -96.684176
        -73.213134        -87.195438        776.830832
 ion   17
         46.423407        -24.127006          2.341551
        -19.472290         93.937395          8.990144
        -15.880496          5.693820        196.458984
 ion   18
         46.423955        -24.126507          2.341417
        -19.471854         93.937359          8.990407
        -15.880448          5.694075        196.459310
 ion   19
         41.623953         30.922433         -1.598394
         23.562681         92.766000        -12.970515
        -11.739975         -5.235783        200.551031
 ion   20
         41.624003         30.922243         -1.598493
         23.562826         92.766155        -12.971150
        -11.739963         -5.236938        200.552454
 ion   21
        111.752630         30.759150        -18.885292
         31.051554         86.575577         33.243562
        -30.752623         57.571050        240.415850
 ion   22
        111.751907         30.758458        -18.885574
         31.050395         86.575358         33.243459
        -30.752634         57.570709        240.415566
 ion   23
        103.799376        -41.107815         -7.302041
        -36.771788         84.558793        -40.718025
        -25.305420        -52.133181        245.302488
 ion   24
        103.799387        -41.107308         -7.302004
        -36.771107         84.558831        -40.718240
        -25.305401        -52.133168        245.303593
  SYMMETRIZED TENSORS 
 ion    1
       -183.508215         -4.509622         -1.335526
         -3.868725       -192.017173         -7.094530
         -1.039101         -5.165107       -189.566301
 ion    2
       -183.508215         -4.509622         -1.335526
         -3.868725       -192.017173         -7.094530
         -1.039101         -5.165107       -189.566301
 ion    3
       -183.508215          4.509622         -1.335526
          3.868725       -192.017173          7.094530
         -1.039101          5.165107       -189.566301
 ion    4
       -183.508215          4.509622         -1.335526
          3.868725       -192.017173          7.094530
         -1.039101          5.165107       -189.566301
 ion    5
       3348.220860         -4.584145        -33.805719
        -75.660178       3314.950862        -17.415556
        -46.726612       -108.212909       2967.345111
 ion    6
       3348.220860         -4.584145        -33.805719
        -75.660178       3314.950862        -17.415556
        -46.726612       -108.212909       2967.345111
 ion    7
       3348.220860          4.584145        -33.805719
         75.660178       3314.950862         17.415556
        -46.726612        108.212909       2967.345111
 ion    8
       3348.220860          4.584145        -33.805719
         75.660178       3314.950862         17.415556
        -46.726612        108.212909       2967.345111
 ion    9
        765.081386        -46.926519         51.538859
        -46.556965        774.345889        140.502934
         63.518815         99.541680        197.773230
 ion   10
        765.081386        -46.926519         51.538859
        -46.556965        774.345889        140.502934
         63.518815         99.541680        197.773230
 ion   11
        765.081386         46.926519         51.538859
         46.556965        774.345889       -140.502934
         63.518815        -99.541680        197.773230
 ion   12
        765.081386         46.926519         51.538859
         46.556965        774.345889       -140.502934
         63.518815        -99.541680        197.773230
 ion   13
        458.048412        224.545364        -99.510308
        182.384576        457.763661         98.646744
        -77.276750         90.366686        774.169223
 ion   14
        458.048412        224.545364        -99.510308
        182.384576        457.763661         98.646744
        -77.276750         90.366686        774.169223
 ion   15
        458.048412       -224.545364        -99.510308
       -182.384576        457.763661        -98.646744
        -77.276750        -90.366686        774.169223
 ion   16
        458.048412       -224.545364        -99.510308
       -182.384576        457.763661        -98.646744
        -77.276750        -90.366686        774.169223
 ion   17
         44.023829        -27.524547          0.371520
        -21.517413         93.351727         10.980554
        -13.810220          5.465154        198.505445
 ion   18
         44.023829        -27.524547          0.371520
        -21.517413         93.351727         10.980554
        -13.810220          5.465154        198.505445
 ion   19
         44.023829         27.524547          0.371520
         21.517413         93.351727        -10.980554
        -13.810220         -5.465154        198.505445
 ion   20
         44.023829         27.524547          0.371520
         21.517413         93.351727        -10.980554
        -13.810220         -5.465154        198.505445
 ion   21
        107.775825         35.933183        -13.093728
         33.911211         85.567140         36.980821
        -28.029020         54.852027        242.859374
 ion   22
        107.775825         35.933183        -13.093728
         33.911211         85.567140         36.980821
        -28.029020         54.852027        242.859374
 ion   23
        107.775825        -35.933183        -13.093728
        -33.911211         85.567140        -36.980821
        -28.029020        -54.852027        242.859374
 ion   24
        107.775825        -35.933183        -13.093728
        -33.911211         85.567140        -36.980821
        -28.029020        -54.852027        242.859374
 -------------------------------------------------------------


 -------------------------------------------------------------
  G=0 CONTRIBUTION TO CHEMICAL SHIFT (field along BDIR) 
 -------------------------------------------------------------
   BDIR                X                 Y                 Z
 -------------------------------------------------------------
     1         -3.133249          0.000000         -0.033124
     2          0.000000         -3.082335          0.000000
     3         -0.052592          0.000000         -3.450883
 -------------------------------------------------------------

  Approximate magnetic susceptibility, pGv (10^-6 cm^3/mole) 
     1        -73.961061          0.000000         -0.781911
     2          0.000000        -72.759224          0.000000
     3         -1.241454          0.000000        -81.458892
 -------------------------------------------------------------


 --------------------------------------------------------------------------
  Core NMR properties        

  typ  El   Core shift (ppm)
 ----------------------------
    1  Na    -377.2811014
    2  Nb   -3786.6089620
    3  O     -271.0766935
    4  F     -306.4193758
 ----------------------------

  Core contribution to magnetic susceptibility:    -14.96  10^-6 cm^3/mole
 --------------------------------------------------------------------------


 ---------------------------------------------------------------------------------
  CSA tensor (J. Mason, Solid State Nucl. Magn. Reson. 2, 285 (1993))             
 ---------------------------------------------------------------------------------
             EXCLUDING G=0 CONTRIBUTION             INCLUDING G=0 CONTRIBUTION    
         -----------------------------------   -----------------------------------
  ATOM    ISO_SHIFT        SPAN        SKEW     ISO_SHIFT        SPAN        SKEW 
 ---------------------------------------------------------------------------------
  (absolute, valence only)                                                                  
     1    -188.3639     16.6559      0.5247     -191.5861     16.7286      0.5113
     2    -188.3639     16.6559      0.5247     -191.5861     16.7286      0.5113
     3    -188.3639     16.6559      0.5247     -191.5861     16.7286      0.5113
     4    -188.3639     16.6559      0.5247     -191.5861     16.7286      0.5113
     5    3210.1723    424.1834      0.6682     3206.9501    424.5099      0.6685
     6    3210.1723    424.1834      0.6682     3206.9501    424.5099      0.6685
     7    3210.1723    424.1834      0.6682     3206.9501    424.5099      0.6685
     8    3210.1723    424.1834      0.6682     3206.9501    424.5099      0.6685
     9     579.0668    655.4790      0.7757      575.8447    655.8046      0.7757
    10     579.0668    655.4790      0.7757      575.8447    655.8046      0.7757
    11     579.0668    655.4790      0.7757      575.8447    655.8046      0.7757
    12     579.0668    655.4790      0.7757      575.8447    655.8046      0.7757
    13     563.3271    580.6608      0.5059      560.1049    580.3794      0.5068
    14     563.3271    580.6608      0.5059      560.1049    580.3794      0.5068
    15     563.3271    580.6608      0.5059      560.1049    580.3794      0.5068
    16     563.3271    580.6608      0.5059      560.1049    580.3794      0.5068
    17     111.9603    165.7861     -0.1731      108.7382    165.4717     -0.1712
    18     111.9603    165.7861     -0.1731      108.7382    165.4717     -0.1712
    19     111.9603    165.7861     -0.1731      108.7382    165.4717     -0.1712
    20     111.9603    165.7861     -0.1731      108.7382    165.4717     -0.1712
    21     145.4008    208.5540     -0.1849      142.1786    208.2648     -0.1836
    22     145.4008    208.5540     -0.1849      142.1786    208.2648     -0.1836
    23     145.4008    208.5540     -0.1849      142.1786    208.2648     -0.1836
    24     145.4008    208.5540     -0.1849      142.1786    208.2648     -0.1836
 ---------------------------------------------------------------------------------
  (absolute, valence and core)                                                                  
     1    -565.6450     16.6559      0.5247     -569.5011     16.7286      0.5113
     2    -565.6450     16.6559      0.5247     -569.5011     16.7286      0.5113
     3    -565.6450     16.6559      0.5247     -569.5011     16.7286      0.5113
     4    -565.6450     16.6559      0.5247     -569.5011     16.7286      0.5113
     5    -576.4367    424.1834      0.6682     -580.2928    424.5099      0.6685
     6    -576.4367    424.1834      0.6682     -580.2928    424.5099      0.6685
     7    -576.4367    424.1834      0.6682     -580.2928    424.5099      0.6685
     8    -576.4367    424.1834      0.6682     -580.2928    424.5099      0.6685
     9     307.9901    655.4790      0.7757      304.1341    655.8046      0.7757
    10     307.9901    655.4790      0.7757      304.1341    655.8046      0.7757
    11     307.9901    655.4790      0.7757      304.1341    655.8046      0.7757
    12     307.9901    655.4790      0.7757      304.1341    655.8046      0.7757
    13     292.2504    580.6608      0.5059      288.3943    580.3794      0.5068
    14     292.2504    580.6608      0.5059      288.3943    580.3794      0.5068
    15     292.2504    580.6608      0.5059      288.3943    580.3794      0.5068
    16     292.2504    580.6608      0.5059      288.3943    580.3794      0.5068
    17    -194.4590    165.7861     -0.1731     -198.3151    165.4717     -0.1712
    18    -194.4590    165.7861     -0.1731     -198.3151    165.4717     -0.1712
    19    -194.4590    165.7861     -0.1731     -198.3151    165.4717     -0.1712
    20    -194.4590    165.7861     -0.1731     -198.3151    165.4717     -0.1712
    21    -161.0186    208.5540     -0.1849     -164.8747    208.2648     -0.1836
    22    -161.0186    208.5540     -0.1849     -164.8747    208.2648     -0.1836
    23    -161.0186    208.5540     -0.1849     -164.8747    208.2648     -0.1836
    24    -161.0186    208.5540     -0.1849     -164.8747    208.2648     -0.1836
 ---------------------------------------------------------------------------------
  IF SPAN.EQ.0, THEN SKEW IS ILL-DEFINED                                          
 ---------------------------------------------------------------------------------


 writing wavefunctions
     LOOP+:  cpu time41354.6853: real time41358.1691
    4ORBIT:  cpu time    0.0000: real time    0.0000

 total amount of memory used by VASP MPI-rank0   551159. kBytes
=======================================================================

   base      :      30000. kBytes
   nonlr-proj:       9771. kBytes
   fftplans  :      20492. kBytes
   grid      :      46129. kBytes
   one-center:       1843. kBytes
   wavefun   :     442924. kBytes

  
  
 General timing and accounting informations for this job:
 ========================================================
  
                  Total CPU time used (sec):    41365.375
                            User time (sec):    41329.679
                          System time (sec):       35.697
                         Elapsed time (sec):    41369.055
  
                   Maximum memory used (kb):     2349652.
                   Average memory used (kb):          N/A
  
                          Minor page faults:       198038
                          Major page faults:            2
                 Voluntary context switches:         1457
