unknown system                          
           1
     8.074990    0.000000   -0.013383
     0.000000    5.440445    0.000000
    -1.600701    0.000000    7.477451
   Na   Nb   O    F 
     4     4     8     8
Direct configuration=     1
   0.36215413  0.78135452  0.11850418
   0.63784584  0.21864548  0.88149582
   0.63784584  0.28135452  0.38149582
   0.36215413  0.71864548  0.61850418
   0.15631276  0.26618778  0.31789576
   0.84368723  0.73381222  0.68210427
   0.84368723  0.76618778  0.18210424
   0.15631276  0.23381222  0.81789573
   0.17953859  0.15660899  0.05517250
   0.82046141  0.84339103  0.94482748
   0.82046141  0.65660897  0.44482751
   0.17953859  0.34339103  0.55517252
   0.03739027  0.55816507  0.21226269
   0.96260971  0.44183493  0.78773730
   0.96260971  0.05816507  0.28773730
   0.03739027  0.94183493  0.71226270
   0.37560302  0.45293388  0.31288585
   0.62439701  0.54706612  0.68711418
   0.62439701  0.95293388  0.18711415
   0.37560302  0.04706612  0.81288582
   0.31572546  0.97728524  0.37869918
   0.68427454  0.02271476  0.62130082
   0.68427454  0.47728524  0.12130082
   0.31572546  0.52271476  0.87869918
