  24  24   0   0
  0.1345672E+02  0.8099730E-09  0.5439130E-09  0.7498150E-09  0.5000000E-15
   1.0000000000000000E-004
  CAR 
 unknown system                          
     14.14086332    -70.35073300  301      0.97425623      1.00000000
    -70.351  0.0000E+00  0.0000E+00
    -70.069  0.0000E+00  0.0000E+00
    -69.787  0.0000E+00  0.0000E+00
    -69.506  0.0000E+00  0.0000E+00
    -69.224  0.0000E+00  0.0000E+00
    -68.943  0.0000E+00  0.0000E+00
    -68.661  0.0000E+00  0.0000E+00
    -68.379  0.0000E+00  0.0000E+00
    -68.098  0.0000E+00  0.0000E+00
    -67.816  0.0000E+00  0.0000E+00
    -67.534  0.0000E+00  0.0000E+00
    -67.253  0.0000E+00  0.0000E+00
    -66.971  0.0000E+00  0.0000E+00
    -66.689  0.0000E+00  0.0000E+00
    -66.408  0.0000E+00  0.8000E+01
    -66.126  0.0000E+00  0.8000E+01
    -65.845  0.0000E+00  0.8000E+01
    -65.563  0.0000E+00  0.8000E+01
    -65.281  0.0000E+00  0.8000E+01
    -65.000  0.0000E+00  0.8000E+01
    -64.718  0.0000E+00  0.8000E+01
    -64.436  0.0000E+00  0.8000E+01
    -64.155  0.0000E+00  0.8000E+01
    -63.873  0.0000E+00  0.8000E+01
    -63.591  0.0000E+00  0.8000E+01
    -63.310  0.0000E+00  0.8000E+01
    -63.028  0.0000E+00  0.8000E+01
    -62.746  0.0000E+00  0.8000E+01
    -62.465  0.0000E+00  0.8000E+01
    -62.183  0.0000E+00  0.8000E+01
    -61.902  0.0000E+00  0.8000E+01
    -61.620  0.0000E+00  0.8000E+01
    -61.338  0.0000E+00  0.8000E+01
    -61.057  0.0000E+00  0.8000E+01
    -60.775  0.0000E+00  0.8000E+01
    -60.493  0.0000E+00  0.8000E+01
    -60.212  0.0000E+00  0.8000E+01
    -59.930  0.0000E+00  0.8000E+01
    -59.648  0.0000E+00  0.8000E+01
    -59.367  0.0000E+00  0.8000E+01
    -59.085  0.0000E+00  0.8000E+01
    -58.804  0.0000E+00  0.8000E+01
    -58.522  0.0000E+00  0.8000E+01
    -58.240  0.0000E+00  0.8000E+01
    -57.959  0.0000E+00  0.8000E+01
    -57.677  0.0000E+00  0.8000E+01
    -57.395  0.0000E+00  0.8000E+01
    -57.114  0.0000E+00  0.8000E+01
    -56.832  0.0000E+00  0.8000E+01
    -56.550  0.0000E+00  0.8000E+01
    -56.269  0.0000E+00  0.8000E+01
    -55.987  0.0000E+00  0.8000E+01
    -55.706  0.0000E+00  0.8000E+01
    -55.424  0.0000E+00  0.8000E+01
    -55.142  0.0000E+00  0.8000E+01
    -54.861  0.0000E+00  0.8000E+01
    -54.579  0.0000E+00  0.8000E+01
    -54.297  0.0000E+00  0.8000E+01
    -54.016  0.0000E+00  0.8000E+01
    -53.734  0.0000E+00  0.8000E+01
    -53.452  0.0000E+00  0.8000E+01
    -53.171  0.0000E+00  0.8000E+01
    -52.889  0.0000E+00  0.8000E+01
    -52.607  0.0000E+00  0.8000E+01
    -52.326  0.0000E+00  0.8000E+01
    -52.044  0.0000E+00  0.8000E+01
    -51.763  0.0000E+00  0.8000E+01
    -51.481  0.0000E+00  0.8000E+01
    -51.199  0.0000E+00  0.8000E+01
    -50.918  0.0000E+00  0.8000E+01
    -50.636  0.0000E+00  0.8000E+01
    -50.354  0.0000E+00  0.8000E+01
    -50.073  0.0000E+00  0.8000E+01
    -49.791  0.0000E+00  0.8000E+01
    -49.509  0.0000E+00  0.8000E+01
    -49.228  0.0000E+00  0.8000E+01
    -48.946  0.0000E+00  0.8000E+01
    -48.665  0.0000E+00  0.8000E+01
    -48.383  0.0000E+00  0.8000E+01
    -48.101  0.0000E+00  0.8000E+01
    -47.820  0.0000E+00  0.8000E+01
    -47.538  0.0000E+00  0.8000E+01
    -47.256  0.0000E+00  0.8000E+01
    -46.975  0.0000E+00  0.1600E+02
    -46.693  0.0000E+00  0.1600E+02
    -46.411  0.0000E+00  0.1600E+02
    -46.130  0.0000E+00  0.1600E+02
    -45.848  0.0000E+00  0.1600E+02
    -45.567  0.0000E+00  0.1600E+02
    -45.285  0.0000E+00  0.1600E+02
    -45.003  0.0000E+00  0.1600E+02
    -44.722  0.0000E+00  0.1600E+02
    -44.440  0.0000E+00  0.1600E+02
    -44.158  0.0000E+00  0.1600E+02
    -43.877  0.0000E+00  0.1600E+02
    -43.595  0.0000E+00  0.1600E+02
    -43.313  0.0000E+00  0.1600E+02
    -43.032  0.0000E+00  0.1600E+02
    -42.750  0.0000E+00  0.1600E+02
    -42.469  0.0000E+00  0.1600E+02
    -42.187  0.0000E+00  0.1600E+02
    -41.905  0.0000E+00  0.1600E+02
    -41.624  0.0000E+00  0.1600E+02
    -41.342  0.0000E+00  0.1600E+02
    -41.060  0.0000E+00  0.1600E+02
    -40.779  0.0000E+00  0.1600E+02
    -40.497  0.0000E+00  0.1600E+02
    -40.215  0.0000E+00  0.1600E+02
    -39.934  0.0000E+00  0.1600E+02
    -39.652  0.0000E+00  0.1600E+02
    -39.370  0.0000E+00  0.1600E+02
    -39.089  0.0000E+00  0.1600E+02
    -38.807  0.0000E+00  0.1600E+02
    -38.526  0.0000E+00  0.1600E+02
    -38.244  0.0000E+00  0.1600E+02
    -37.962  0.0000E+00  0.1600E+02
    -37.681  0.0000E+00  0.1600E+02
    -37.399  0.0000E+00  0.1600E+02
    -37.117  0.0000E+00  0.1600E+02
    -36.836  0.0000E+00  0.1600E+02
    -36.554  0.0000E+00  0.1600E+02
    -36.272  0.0000E+00  0.1600E+02
    -35.991  0.0000E+00  0.1600E+02
    -35.709  0.0000E+00  0.1600E+02
    -35.428  0.0000E+00  0.1600E+02
    -35.146  0.0000E+00  0.1600E+02
    -34.864  0.0000E+00  0.1600E+02
    -34.583  0.0000E+00  0.1600E+02
    -34.301  0.0000E+00  0.1600E+02
    -34.019  0.0000E+00  0.1600E+02
    -33.738  0.0000E+00  0.1600E+02
    -33.456  0.0000E+00  0.1600E+02
    -33.174  0.0000E+00  0.1600E+02
    -32.893  0.1730E+02  0.3720E+02
    -32.611  0.0000E+00  0.4000E+02
    -32.330  0.0000E+00  0.4000E+02
    -32.048  0.0000E+00  0.4000E+02
    -31.766  0.0000E+00  0.4000E+02
    -31.485  0.0000E+00  0.4000E+02
    -31.203  0.0000E+00  0.4000E+02
    -30.921  0.0000E+00  0.4000E+02
    -30.640  0.0000E+00  0.4000E+02
    -30.358  0.0000E+00  0.4000E+02
    -30.076  0.0000E+00  0.4000E+02
    -29.795  0.0000E+00  0.4000E+02
    -29.513  0.0000E+00  0.4000E+02
    -29.231  0.0000E+00  0.4000E+02
    -28.950  0.0000E+00  0.4000E+02
    -28.668  0.0000E+00  0.4000E+02
    -28.387  0.0000E+00  0.4000E+02
    -28.105  0.0000E+00  0.4000E+02
    -27.823  0.0000E+00  0.4000E+02
    -27.542  0.0000E+00  0.4000E+02
    -27.260  0.0000E+00  0.4000E+02
    -26.978  0.0000E+00  0.4000E+02
    -26.697  0.0000E+00  0.4000E+02
    -26.415  0.0000E+00  0.4000E+02
    -26.133  0.0000E+00  0.4000E+02
    -25.852  0.0000E+00  0.4000E+02
    -25.570  0.0000E+00  0.4000E+02
    -25.289  0.0000E+00  0.4000E+02
    -25.007  0.0000E+00  0.4000E+02
    -24.725  0.0000E+00  0.4000E+02
    -24.444  0.0000E+00  0.4000E+02
    -24.162  0.0000E+00  0.4000E+02
    -23.880  0.0000E+00  0.4000E+02
    -23.599  0.0000E+00  0.4000E+02
    -23.317  0.0000E+00  0.4000E+02
    -23.035  0.0000E+00  0.4000E+02
    -22.754  0.0000E+00  0.4000E+02
    -22.472  0.0000E+00  0.4000E+02
    -22.191  0.0000E+00  0.4000E+02
    -21.909  0.0000E+00  0.4000E+02
    -21.627  0.0000E+00  0.4000E+02
    -21.346  0.0000E+00  0.4000E+02
    -21.064  0.0000E+00  0.4000E+02
    -20.782  0.0000E+00  0.4000E+02
    -20.501  0.0000E+00  0.4000E+02
    -20.219  0.6100E+00  0.4017E+02
    -19.937  0.1032E+02  0.5291E+02
    -19.656  0.0000E+00  0.5600E+02
    -19.374  0.0000E+00  0.5600E+02
    -19.092  0.0000E+00  0.5600E+02
    -18.811  0.1746E+02  0.7600E+02
    -18.529  0.0000E+00  0.8000E+02
    -18.248  0.0000E+00  0.8000E+02
    -17.966  0.0000E+00  0.8000E+02
    -17.684  0.0000E+00  0.8000E+02
    -17.403  0.0000E+00  0.8000E+02
    -17.121  0.0000E+00  0.8000E+02
    -16.839  0.0000E+00  0.8000E+02
    -16.558  0.0000E+00  0.8000E+02
    -16.276  0.0000E+00  0.8000E+02
    -15.994  0.0000E+00  0.8000E+02
    -15.713  0.3425E+01  0.8163E+02
    -15.431  0.9598E+01  0.8904E+02
    -15.150  0.6510E+01  0.9200E+02
    -14.868  0.0000E+00  0.9200E+02
    -14.586  0.0000E+00  0.9400E+02
    -14.305  0.0000E+00  0.9600E+02
    -14.023  0.0000E+00  0.9600E+02
    -13.741  0.0000E+00  0.9600E+02
    -13.460  0.0000E+00  0.9600E+02
    -13.178  0.0000E+00  0.9600E+02
    -12.896  0.0000E+00  0.9600E+02
    -12.615  0.0000E+00  0.9600E+02
    -12.333  0.0000E+00  0.9600E+02
    -12.052  0.0000E+00  0.9600E+02
    -11.770  0.0000E+00  0.9600E+02
    -11.488  0.0000E+00  0.9600E+02
    -11.207  0.0000E+00  0.9600E+02
    -10.925  0.0000E+00  0.9600E+02
    -10.643  0.0000E+00  0.9600E+02
    -10.362  0.0000E+00  0.9600E+02
    -10.080  0.0000E+00  0.9600E+02
     -9.798  0.0000E+00  0.9600E+02
     -9.517  0.0000E+00  0.9600E+02
     -9.235  0.0000E+00  0.9600E+02
     -8.954  0.0000E+00  0.9600E+02
     -8.672  0.0000E+00  0.9600E+02
     -8.390  0.0000E+00  0.9600E+02
     -8.109  0.0000E+00  0.9600E+02
     -7.827  0.0000E+00  0.9600E+02
     -7.545  0.0000E+00  0.9600E+02
     -7.264  0.0000E+00  0.9600E+02
     -6.982  0.0000E+00  0.9600E+02
     -6.700  0.0000E+00  0.9600E+02
     -6.419  0.0000E+00  0.9600E+02
     -6.137  0.0000E+00  0.9600E+02
     -5.855  0.0000E+00  0.9600E+02
     -5.574  0.0000E+00  0.9600E+02
     -5.292  0.0000E+00  0.9600E+02
     -5.011  0.0000E+00  0.9600E+02
     -4.729  0.0000E+00  0.9600E+02
     -4.447  0.0000E+00  0.9600E+02
     -4.166  0.0000E+00  0.9600E+02
     -3.884  0.1905E-02  0.9600E+02
     -3.602  0.5143E+01  0.1057E+03
     -3.321  0.3367E+00  0.1061E+03
     -3.039  0.4209E+01  0.1099E+03
     -2.757  0.4305E+01  0.1138E+03
     -2.476  0.8794E+01  0.1202E+03
     -2.194  0.4128E+01  0.1260E+03
     -1.913  0.7602E+01  0.1326E+03
     -1.631  0.5095E+01  0.1381E+03
     -1.349  0.7710E+01  0.1441E+03
     -1.068  0.6394E+01  0.1524E+03
     -0.786  0.6396E+01  0.1605E+03
     -0.504  0.5047E+01  0.1700E+03
     -0.223  0.3884E+01  0.1733E+03
      0.059  0.9306E+01  0.1788E+03
      0.341  0.6420E+01  0.1852E+03
      0.622  0.1184E+01  0.1883E+03
      0.904  0.0000E+00  0.1920E+03
      1.185  0.0000E+00  0.1920E+03
      1.467  0.0000E+00  0.1920E+03
      1.749  0.0000E+00  0.1920E+03
      2.030  0.0000E+00  0.1920E+03
      2.312  0.0000E+00  0.1920E+03
      2.594  0.0000E+00  0.1920E+03
      2.875  0.0000E+00  0.1920E+03
      3.157  0.0000E+00  0.1920E+03
      3.439  0.0000E+00  0.1920E+03
      3.720  0.0000E+00  0.1920E+03
      4.002  0.0000E+00  0.1920E+03
      4.284  0.0000E+00  0.1920E+03
      4.565  0.8945E-07  0.1920E+03
      4.847  0.4706E+01  0.1943E+03
      5.128  0.3286E+01  0.1976E+03
      5.410  0.1558E+01  0.1991E+03
      5.692  0.2371E+01  0.2003E+03
      5.973  0.4167E+01  0.2038E+03
      6.255  0.2378E+01  0.2070E+03
      6.537  0.4686E+01  0.2103E+03
      6.818  0.2212E+01  0.2120E+03
      7.100  0.5274E+01  0.2152E+03
      7.382  0.6681E-05  0.2160E+03
      7.663  0.4293E-03  0.2162E+03
      7.945  0.3750E-04  0.2167E+03
      8.226  0.2959E+00  0.2171E+03
      8.508  0.9518E+00  0.2176E+03
      8.790  0.1776E+01  0.2187E+03
      9.071  0.3958E+01  0.2207E+03
      9.353  0.1160E+01  0.2230E+03
      9.635  0.3819E+01  0.2254E+03
      9.916  0.1104E+01  0.2274E+03
     10.198  0.1751E+01  0.2292E+03
     10.480  0.0000E+00  0.2300E+03
     10.761  0.0000E+00  0.2300E+03
     11.043  0.0000E+00  0.2300E+03
     11.324  0.0000E+00  0.2300E+03
     11.606  0.0000E+00  0.2300E+03
     11.888  0.0000E+00  0.2300E+03
     12.169  0.0000E+00  0.2300E+03
     12.451  0.0000E+00  0.2300E+03
     12.733  0.0000E+00  0.2300E+03
     13.014  0.0000E+00  0.2300E+03
     13.296  0.0000E+00  0.2300E+03
     13.578  0.0000E+00  0.2300E+03
     13.859  0.0000E+00  0.2300E+03
     14.141  0.0000E+00  0.2300E+03
