 vasp.6.2.1 16May21 (build Jan  3 2022 11:18:50) complex                         
 executed on             LinuxGNU date 2023.01.27  10:53:34
 running    1 mpi-ranks, with    1 threads/rank
 distrk:  each k-point on    1 cores,    1 groups
 distr:  one band on NCORE=   1 cores,    1 groups


--------------------------------------------------------------------------------------------------------


 INCAR:
   ISTART = 0
   ISMEAR = 0
   SIGMA = 0.01
   ENCUT = 550
   PREC = N
   LREAL = A
   EDIFF = 1e-8
   LCHIMAG = .TRUE.	
   DQ = 0.003
   ICHIBARE = 1
   LEFG = .TRUE.
   QUAD_EFG = 104 -320 -25.58 -94.2

 POTCAR:    PAW_PBE Na_sv_GW 11May2015            
 POTCAR:    PAW_PBE Ta_sv_GW 23Mar2010            
 POTCAR:    PAW_PBE O_s_GW 10Jan2007              
 POTCAR:    PAW_PBE F_GW 21Dec2007                
 POTCAR:    PAW_PBE Na_sv_GW 11May2015            
   SHA256 =  7aca660ab3bfaee19d1ee7a682571aefe7e2df9c5a478cbc4ca048f133583603 Na_sv_GW/POTCAR       
   COPYR  = (c) Copyright 11May2015 Georg Kresse                                                    
   COPYR  = This file is part of the software VASP. Any use, copying, and all other rights are regul
   COPYR  = If you do not have a valid VASP license, you may not use, copy or distribute this file. 
   VRHFIN =Na: 2s2p3s                                                                               
   LEXCH  = PE                                                                                      
   EATOM  =  1305.7875 eV,   95.9727 Ry                                                             
                                                                                                    
   TITEL  = PAW_PBE Na_sv_GW 11May2015                                                              
   LULTRA =        F    use ultrasoft PP ?                                                          
   IUNSCR =        1    unscreen: 0-lin 1-nonlin 2-no                                               
   RPACOR =    1.800    partial core radius                                                         
   POMASS =   22.990; ZVAL   =    9.000    mass and valenz                                          
   RCORE  =    2.200    outmost cutoff radius                                                       
   RWIGS  =    2.200; RWIGS  =    1.164    wigner-seitz radius (au A)                               
   ENMAX  =  372.853; ENMIN  =  279.639 eV                                                          
   RCLOC  =    1.108    cutoff for local pot                                                        
   LCOR   =        T    correct aug charges                                                         
   LPAW   =        T    paw PP                                                                      
   EAUG   =  536.357                                                                                
   RMAX   =    2.245    core radius for proj-oper                                                   
   RAUG   =    1.300    factor for augmentation sphere                                              
   RDEP   =    2.259    radius for radial grids                                                     
   RDEPT  =    1.800    core radius for aug-charge                                                  
                                                                                                    
   Atomic configuration                                                                             
    6 entries                                                                                       
     n  l   j            E        occ.                                                              
     1  0  0.50     -1035.8704   2.0000                                                             
     2  0  0.50       -58.9175   2.0000                                                             
     2  1  1.50       -30.8193   6.0000                                                             
     3  1  1.50        -1.4789   1.0000                                                             
     3  2  1.50        -0.7184   0.0000                                                             
     4  3  2.50        -1.3606   0.0000                                                             
   Description                                                                                      
     l       E           TYP  RCUT    TYP  RCUT                                                     
     0    -58.9175350     23  1.400                                                                 
     0    108.8466080     23  1.400                                                                 
     1    -30.8192593     23  1.650                                                                 
     1     -1.4788505     23  2.200                                                                 
     1     81.6349560     23  2.200                                                                 
     2     20.4087390     23  2.200                                                                 
     2     54.4233040     23  2.200                                                                 
  local pseudopotential read in
  partial core-charges read in
  partial kinetic energy density read in
  kinetic energy density of atom read in
  atomic valenz-charges read in
  non local Contribution for L=           0  read in
    real space projection operators read in
  non local Contribution for L=           0  read in
    real space projection operators read in
  non local Contribution for L=           1  read in
    real space projection operators read in
  non local Contribution for L=           1  read in
    real space projection operators read in
  non local Contribution for L=           1  read in
    real space projection operators read in
  non local Contribution for L=           2  read in
    real space projection operators read in
  non local Contribution for L=           2  read in
    real space projection operators read in
    PAW grid and wavefunctions read in

   number of l-projection  operators is LMAX  =           7
   number of lm-projection operators is LMMAX =          21

 POTCAR:    PAW_PBE Ta_sv_GW 23Mar2010            
   SHA256 =  f9dffcd32a5321ea182ca3bf88f89b0d05d2b9340811fad1b6a642133ccdfc37 Ta_sv_GW/POTCAR       
   COPYR  = (c) Copyright 23Mar2010 Georg Kresse                                                    
   COPYR  = This file is part of the software VASP. Any use, copying, and all other rights are regul
   COPYR  = If you do not have a valid VASP license, you may not use, copy or distribute this file. 
   VRHFIN =Ta: 5p6s6d                                                                               
   LEXCH  = PE                                                                                      
   EATOM  =  1591.0418 eV,  116.9383 Ry                                                             
                                                                                                    
   TITEL  = PAW_PBE Ta_sv_GW 23Mar2010                                                              
   LULTRA =        F    use ultrasoft PP ?                                                          
   IUNSCR =        1    unscreen: 0-lin 1-nonlin 2-no                                               
   RPACOR =    1.500    partial core radius                                                         
   POMASS =  180.948; ZVAL   =   13.000    mass and valenz                                          
   RCORE  =    2.500    outmost cutoff radius                                                       
   RWIGS  =    2.600; RWIGS  =    1.376    wigner-seitz radius (au A)                               
   ENMAX  =  286.008; ENMIN  =  214.506 eV                                                          
   RCLOC  =    1.601    cutoff for local pot                                                        
   LCOR   =        T    correct aug charges                                                         
   LPAW   =        T    paw PP                                                                      
   EAUG   =  718.287                                                                                
   DEXC   =    0.000                                                                                
   RMAX   =    2.551    core radius for proj-oper                                                   
   RAUG   =    1.300    factor for augmentation sphere                                              
   RDEP   =    2.526    radius for radial grids                                                     
   RDEPT  =    1.943    core radius for aug-charge                                                  
                                                                                                    
   Atomic configuration                                                                             
   14 entries                                                                                       
     n  l   j            E        occ.                                                              
     1  0  0.50    -67340.1329   2.0000                                                             
     2  0  0.50    -11565.7071   2.0000                                                             
     2  1  1.50    -10132.8906   6.0000                                                             
     3  0  0.50     -2647.3399   2.0000                                                             
     3  1  1.50     -2221.3791   6.0000                                                             
     3  2  2.50     -1725.0844  10.0000                                                             
     4  0  0.50      -537.4682   2.0000                                                             
     4  1  1.50      -397.7815   6.0000                                                             
     4  2  2.50      -219.1567  10.0000                                                             
     4  3  3.50       -21.7939  14.0000                                                             
     5  0  0.50       -70.0410   2.0000                                                             
     5  1  1.50       -36.6715   6.0000                                                             
     5  2  2.50        -2.0002   5.0000                                                             
     5  3  2.50        -1.3606   0.0000                                                             
   Description                                                                                      
     l       E           TYP  RCUT    TYP  RCUT                                                     
     0    -70.0409813     23  1.500                                                                 
     0    -71.4015639     23  1.500                                                                 
     0    108.8466080     23  1.500                                                                 
     1    -36.6714834     23  1.900                                                                 
     1     68.0291300     23  1.900                                                                 
     2     -2.0001941     23  2.200                                                                 
     2      1.0823759     23  2.200                                                                 
     3      6.8029130     23  2.500                                                                 
  local pseudopotential read in
  partial core-charges read in
  partial kinetic energy density read in
  kinetic energy density of atom read in
  atomic valenz-charges read in
  non local Contribution for L=           0  read in
    real space projection operators read in
  non local Contribution for L=           0  read in
    real space projection operators read in
  non local Contribution for L=           0  read in
    real space projection operators read in
  non local Contribution for L=           1  read in
    real space projection operators read in
  non local Contribution for L=           1  read in
    real space projection operators read in
  non local Contribution for L=           2  read in
    real space projection operators read in
  non local Contribution for L=           2  read in
    real space projection operators read in
  non local Contribution for L=           3  read in
    real space projection operators read in
    PAW grid and wavefunctions read in

   number of l-projection  operators is LMAX  =           8
   number of lm-projection operators is LMMAX =          26

 POTCAR:    PAW_PBE O_s_GW 10Jan2007              
   SHA256 =  8479399bb3502b2838d2b23234b8597ed1f898a5a7f592e6c46d7b1ca5096bfd O_s_GW/POTCAR         
   COPYR  = (c) Copyright 10Jan2007 Georg Kresse                                                    
   COPYR  = This file is part of the software VASP. Any use, copying, and all other rights are regul
   COPYR  = If you do not have a valid VASP license, you may not use, copy or distribute this file. 
   VRHFIN =O: s2p4                                                                                  
   LEXCH  = PE                                                                                      
   EATOM  =   432.3788 eV,   31.7789 Ry                                                             
                                                                                                    
   TITEL  = PAW_PBE O_s_GW 10Jan2007                                                                
   LULTRA =        F    use ultrasoft PP ?                                                          
   IUNSCR =        0    unscreen: 0-lin 1-nonlin 2-no                                               
   RPACOR =    0.000    partial core radius                                                         
   POMASS =   16.000; ZVAL   =    6.000    mass and valenz                                          
   RCORE  =    1.700    outmost cutoff radius                                                       
   RWIGS  =    1.800; RWIGS  =    0.953    wigner-seitz radius (au A)                               
   ENMAX  =  334.664; ENMIN  =  250.998 eV                                                          
   ICORE  =        2    local potential                                                             
   LCOR   =        T    correct aug charges                                                         
   LPAW   =        T    paw PP                                                                      
   EAUG   =  468.659                                                                                
   DEXC   =    0.000                                                                                
   RMAX   =    1.737    core radius for proj-oper                                                   
   RAUG   =    1.300    factor for augmentation sphere                                              
   RDEP   =    1.761    radius for radial grids                                                     
   RDEPT  =    1.463    core radius for aug-charge                                                  
                                                                                                    
   Atomic configuration                                                                             
    4 entries                                                                                       
     n  l   j            E        occ.                                                              
     1  0  0.50      -514.6923   2.0000                                                             
     2  0  0.50       -23.9615   2.0000                                                             
     2  1  0.50        -9.0305   4.0000                                                             
     3  2  1.50        -9.5241   0.0000                                                             
   Description                                                                                      
     l       E           TYP  RCUT    TYP  RCUT                                                     
     0    -23.9615316     23  1.400                                                                 
     0     95.2407820     23  1.400                                                                 
     1     -9.0304908     23  1.700                                                                 
     1    -20.4087390     23  1.700                                                                 
     1    108.8466080     23  1.700                                                                 
     2      6.8029130      7  1.500                                                                 
  local pseudopotential read in
  kinetic energy density of atom read in
  atomic valenz-charges read in
  non local Contribution for L=           0  read in
    real space projection operators read in
  non local Contribution for L=           0  read in
    real space projection operators read in
  non local Contribution for L=           1  read in
    real space projection operators read in
  non local Contribution for L=           1  read in
    real space projection operators read in
  non local Contribution for L=           1  read in
    real space projection operators read in
    PAW grid and wavefunctions read in

   number of l-projection  operators is LMAX  =           5
   number of lm-projection operators is LMMAX =          11

 POTCAR:    PAW_PBE F_GW 21Dec2007                
   SHA256 =  a4be5be7c2e94ecbdd74e103f102d884b83cc3f3bf5f2c60c72fa35846851376 F_GW/POTCAR           
   COPYR  = (c) Copyright 21Dec2007 Georg Kresse                                                    
   COPYR  = This file is part of the software VASP. Any use, copying, and all other rights are regul
   COPYR  = If you do not have a valid VASP license, you may not use, copy or distribute this file. 
   VRHFIN =F: s2p5                                                                                  
   LEXCH  = PE                                                                                      
   EATOM  =   659.6475 eV,   48.4827 Ry                                                             
                                                                                                    
   TITEL  = PAW_PBE F_GW 21Dec2007                                                                  
   LULTRA =        F    use ultrasoft PP ?                                                          
   IUNSCR =        0    unscreen: 0-lin 1-nonlin 2-no                                               
   RPACOR =    0.000    partial core radius                                                         
   POMASS =   18.998; ZVAL   =    7.000    mass and valenz                                          
   RCORE  =    1.400    outmost cutoff radius                                                       
   RWIGS  =    1.500; RWIGS  =    0.794    wigner-seitz radius (au A)                               
   ENMAX  =  487.698; ENMIN  =  365.773 eV                                                          
   ICORE  =        2    local potential                                                             
   LCOR   =        T    correct aug charges                                                         
   LPAW   =        T    paw PP                                                                      
   EAUG   =  697.405                                                                                
   DEXC   =    0.000                                                                                
   RMAX   =    1.435    core radius for proj-oper                                                   
   RAUG   =    1.300    factor for augmentation sphere                                              
   RDEP   =    1.444    radius for radial grids                                                     
   RDEPT  =    1.218    core radius for aug-charge                                                  
                                                                                                    
   Atomic configuration                                                                             
    4 entries                                                                                       
     n  l   j            E        occ.                                                              
     1  0  0.50      -663.3661   2.0000                                                             
     2  0  0.50       -29.8995   2.0000                                                             
     2  1  0.50       -11.1114   5.0000                                                             
     3  2  1.50       -12.2452   0.0000                                                             
   Description                                                                                      
     l       E           TYP  RCUT    TYP  RCUT                                                     
     0    -29.8995019     23  1.100                                                                 
     0     -9.5240782     23  1.100                                                                 
     1    -11.1113914     23  1.400                                                                 
     1      1.3605826     23  1.400                                                                 
     2    -12.2452434     23  1.400                                                                 
  local pseudopotential read in
  kinetic energy density of atom read in
  atomic valenz-charges read in
  non local Contribution for L=           0  read in
    real space projection operators read in
  non local Contribution for L=           0  read in
    real space projection operators read in
  non local Contribution for L=           1  read in
    real space projection operators read in
  non local Contribution for L=           1  read in
    real space projection operators read in
    PAW grid and wavefunctions read in

   number of l-projection  operators is LMAX  =           4
   number of lm-projection operators is LMMAX =           8

 Optimization of the real space projectors (new method)

 maximal supplied QI-value         = 17.01
 optimisation between [QCUT,QGAM] = [ 11.91, 23.98] = [ 39.69,161.04] Ry 
 Optimized for a Real-space Cutoff    1.41 Angstroem

   l    n(q)    QCUT    max X(q) W(low)/X(q) W(high)/X(q)  e(spline) 
   0     10    11.905     3.417    0.52E-05    0.14E-05    0.21E-07
   0     10    11.905     3.114    0.22E-04    0.17E-05    0.22E-06
   1     10    11.905     5.429    0.19E-03    0.12E-03    0.89E-06
   1     10    11.905    22.312    0.14E-03    0.89E-04    0.45E-06
   1     10    11.905     3.323    0.31E-03    0.19E-03    0.13E-05
   2      9    11.905    12.030    0.19E-03    0.32E-04    0.24E-06
   2      9    11.905     8.156    0.21E-03    0.33E-04    0.24E-06
 Optimization of the real space projectors (new method)

 maximal supplied QI-value         = 15.12
 optimisation between [QCUT,QGAM] = [ 11.94, 23.89] = [ 39.94,159.77] Ry 
 Optimized for a Real-space Cutoff    1.45 Angstroem

   l    n(q)    QCUT    max X(q) W(low)/X(q) W(high)/X(q)  e(spline) 
   0     10    11.943   378.168    0.29E-04    0.59E-04    0.12E-05
   0     10    11.943   400.714    0.29E-04    0.59E-04    0.12E-05
   0     10    11.943     5.006    0.16E-04    0.41E-04    0.10E-05
   1     10    11.943     2.647    0.35E-05    0.45E-05    0.43E-07
   1     10    11.943     2.272    0.31E-04    0.27E-04    0.15E-06
   2      9    11.943    42.263    0.32E-03    0.47E-04    0.58E-06
   2      9    11.943    33.287    0.32E-03    0.44E-04    0.57E-06
   3      9    11.943     3.457    0.49E-03    0.55E-03    0.27E-06
 Optimization of the real space projectors (new method)

 maximal supplied QI-value         = 22.11
 optimisation between [QCUT,QGAM] = [ 11.94, 23.88] = [ 39.92,159.67] Ry 
 Optimized for a Real-space Cutoff    1.45 Angstroem

   l    n(q)    QCUT    max X(q) W(low)/X(q) W(high)/X(q)  e(spline) 
   0     10    11.939     5.088    0.25E-04    0.28E-06    0.17E-06
   0     10    11.939     1.664    0.52E-04    0.46E-05    0.54E-06
   1     10    11.939     8.077    0.27E-03    0.19E-03    0.13E-05
   1     10    11.939     5.951    0.49E-03    0.34E-03    0.25E-05
   1     10    11.939     3.597    0.20E-03    0.15E-03    0.13E-05
 Optimization of the real space projectors (new method)

 maximal supplied QI-value         = 26.83
 optimisation between [QCUT,QGAM] = [ 11.81, 23.88] = [ 39.04,159.72] Ry 
 Optimized for a Real-space Cutoff    1.11 Angstroem

   l    n(q)    QCUT    max X(q) W(low)/X(q) W(high)/X(q)  e(spline) 
   0      8    11.807    15.805    0.41E-03    0.77E-03    0.26E-06
   0      8    11.807    12.410    0.41E-03    0.76E-03    0.26E-06
   1      7    11.807     9.077    0.16E-03    0.46E-03    0.19E-06
   1      7    11.807     8.229    0.14E-03    0.43E-03    0.19E-06
  PAW_PBE Na_sv_GW 11May2015            :
 energy of atom  1       EATOM=-1305.7875
 kinetic energy error for atom=    0.0318 (will be added to EATOM!!)
  PAW_PBE Ta_sv_GW 23Mar2010            :
 energy of atom  2       EATOM=-1591.0418
 kinetic energy error for atom=    0.0133 (will be added to EATOM!!)
  PAW_PBE O_s_GW 10Jan2007              :
 energy of atom  3       EATOM= -432.3788
 kinetic energy error for atom=    0.0100 (will be added to EATOM!!)
  PAW_PBE F_GW 21Dec2007                :
 energy of atom  4       EATOM= -659.6475
 kinetic energy error for atom=    0.0458 (will be added to EATOM!!)


 POSCAR: Sodium difluorodioxoniobate
  positions in direct lattice
  No initial velocities read in
 exchange correlation table for  LEXCH =        8
   RHO(1)=    0.500       N(1)  =     2000
   RHO(2)=  100.500       N(2)  =     4000



--------------------------------------------------------------------------------------------------------


 ion  position               nearest neighbor table
   1  0.377  0.793  0.109-  19 2.20  24 2.27  17 2.28   9 2.42
   2  0.623  0.207  0.891-  20 2.20  23 2.27  18 2.28  10 2.42
   3  0.623  0.293  0.391-  17 2.20  22 2.27  19 2.28  11 2.42
   4  0.377  0.707  0.609-  18 2.20  21 2.27  20 2.28  12 2.42
   5  0.158  0.260  0.298-  15 1.90  12 1.93  13 1.93   9 2.01  21 2.06  17 2.10
   6  0.842  0.740  0.702-  16 1.90  11 1.93  14 1.93  10 2.01  22 2.06  18 2.10
   7  0.842  0.760  0.202-  13 1.90  10 1.93  15 1.93  11 2.01  23 2.06  19 2.10
   8  0.158  0.240  0.798-  14 1.90   9 1.93  16 1.93  12 2.01  24 2.06  20 2.10
   9  0.199  0.154  0.053-   8 1.93   5 2.01   1 2.42
  10  0.801  0.846  0.947-   7 1.93   6 2.01   2 2.42
  11  0.801  0.654  0.447-   6 1.93   7 2.01   3 2.42
  12  0.199  0.346  0.553-   5 1.93   8 2.01   4 2.42
  13  0.037  0.559  0.216-   7 1.90   5 1.93
  14  0.963  0.441  0.784-   8 1.90   6 1.93
  15  0.963  0.059  0.284-   5 1.90   7 1.93
  16  0.037  0.941  0.716-   6 1.90   8 1.93
  17  0.376  0.472  0.304-   5 2.10   3 2.20   1 2.28
  18  0.624  0.528  0.696-   6 2.10   4 2.20   2 2.28
  19  0.624  0.972  0.196-   7 2.10   1 2.20   3 2.28
  20  0.376  0.028  0.804-   8 2.10   2 2.20   4 2.28
  21  0.330  0.982  0.377-   5 2.06   4 2.27
  22  0.670  0.018  0.623-   6 2.06   3 2.27
  23  0.670  0.482  0.123-   7 2.06   2 2.27
  24  0.330  0.518  0.877-   8 2.06   1 2.27

  LATTYP: Found a simple monoclinic cell.
 ALAT       =     7.4981498718
 B/A-ratio  =     0.7253962541
 C/A-ratio  =     1.0802304137
 COS(beta)  =    -0.2101015522
  
  Lattice vectors:
  
 A1 = (  -1.5753729267,   0.0000000000,   7.3307879278)
 A2 = (   0.0000000000,  -5.4391298294,   0.0000000000)
 A3 = (   8.0997295380,   0.0000000000,   0.0000000000)


Analysis of symmetry for initial positions (statically):
=====================================================================
 Subroutine PRICEL returns:
 Original cell was already a primitive cell.
 

 Routine SETGRP: Setting up the symmetry group for a 
 simple monoclinic supercell.


 Subroutine GETGRP returns: Found  4 space group operations
 (whereof  2 operations were pure point group operations)
 out of a pool of  4 trial point group operations.


The static configuration has the point symmetry S_2 .
 The point group associated with its full space group is C_2h.


Analysis of symmetry for dynamics (positions and initial velocities):
=====================================================================
 Subroutine PRICEL returns:
 Original cell was already a primitive cell.
 

 Routine SETGRP: Setting up the symmetry group for a 
 simple monoclinic supercell.


 Subroutine GETGRP returns: Found  4 space group operations
 (whereof  2 operations were pure point group operations)
 out of a pool of  4 trial point group operations.


The dynamic configuration has the point symmetry S_2 .
 The point group associated with its full space group is C_2h.


 Subroutine INISYM returns: Found  4 space group operations
 (whereof  2 operations are pure point group operations),
 and found     1 'primitive' translations


----------------------------------------------------------------------------------------

                                     Primitive cell                                     

  volume of cell :     322.9614

  direct lattice vectors                    reciprocal lattice vectors
     8.099729538  0.000000000  0.000000000     0.123460913 -0.000000000  0.026531524
     0.000000000  5.439129829  0.000000000     0.000000000  0.183852938 -0.000000000
    -1.575372927  0.000000000  7.330787928     0.000000000  0.000000000  0.136410985

  length of vectors
     8.099729538  5.439129829  7.498149872     0.126279526  0.183852938  0.136410985

  position of ions in fractional coordinates (direct lattice)
     0.376700014  0.793200016  0.109200001
     0.623299956  0.206799984  0.890799999
     0.623299956  0.293200016  0.390799999
     0.376700014  0.706799984  0.609200001
     0.158069998  0.259799987  0.298159987
     0.841930032  0.740200043  0.701840043
     0.841930032  0.759799957  0.201840013
     0.158069998  0.240200013  0.798159957
     0.198500007  0.154300004  0.053300001
     0.801499963  0.845700026  0.946699977
     0.801499963  0.654299974  0.446700007
     0.198500007  0.345699996  0.553300023
     0.036699999  0.559199989  0.216299996
     0.963299990  0.440800011  0.783699989
     0.963299990  0.059199989  0.283699989
     0.036699999  0.940800011  0.716300011
     0.376399994  0.471899986  0.303700000
     0.623600006  0.528100014  0.696300030
     0.623600006  0.971899986  0.196300000
     0.376399994  0.028100014  0.803699970
     0.330399990  0.982299984  0.376700014
     0.669600010  0.017700016  0.623299956
     0.669600010  0.482299984  0.123299986
     0.330399990  0.517700016  0.876700044

  ion indices of the primitive-cell ions
   primitive index   ion index
                 1           1
                 2           2
                 3           3
                 4           4
                 5           5
                 6           6
                 7           7
                 8           8
                 9           9
                10          10
                11          11
                12          12
                13          13
                14          14
                15          15
                16          16
                17          17
                18          18
                19          19
                20          20
                21          21
                22          22
                23          23
                24          24

----------------------------------------------------------------------------------------



 KPOINTS: NbOF3_W11-333-vasp_21-relcw             

Automatic generation of k-mesh.
 Grid dimensions read from file:
 generate k-points for:    4    6    4

 Generating k-lattice:

  Cartesian coordinates                     Fractional coordinates (reciprocal lattice)
     0.030865228 -0.000000000  0.006632881     0.250000000  0.000000000  0.000000000
     0.000000000  0.030642156 -0.000000000     0.000000000  0.166666667  0.000000000
     0.000000000  0.000000000  0.034102746     0.000000000  0.000000000  0.250000000

  Length of vectors
     0.031569882  0.030642156  0.034102746

  Shift w.r.t. Gamma in fractional coordinates (k-lattice)
     0.500000000  0.500000000  0.500000000

 
 Subroutine IBZKPT returns following result:
 ===========================================
 
 Found     24 irreducible k-points:
 
 Following reciprocal coordinates:
            Coordinates               Weight
  0.125000  0.083333  0.125000      4.000000
  0.375000  0.083333  0.125000      4.000000
 -0.375000  0.083333  0.125000      4.000000
 -0.125000  0.083333  0.125000      4.000000
  0.125000  0.250000  0.125000      4.000000
  0.375000  0.250000  0.125000      4.000000
 -0.375000  0.250000  0.125000      4.000000
 -0.125000  0.250000  0.125000      4.000000
  0.125000  0.416667  0.125000      4.000000
  0.375000  0.416667  0.125000      4.000000
 -0.375000  0.416667  0.125000      4.000000
 -0.125000  0.416667  0.125000      4.000000
  0.125000  0.083333  0.375000      4.000000
  0.375000  0.083333  0.375000      4.000000
 -0.375000  0.083333  0.375000      4.000000
 -0.125000  0.083333  0.375000      4.000000
  0.125000  0.250000  0.375000      4.000000
  0.375000  0.250000  0.375000      4.000000
 -0.375000  0.250000  0.375000      4.000000
 -0.125000  0.250000  0.375000      4.000000
  0.125000  0.416667  0.375000      4.000000
  0.375000  0.416667  0.375000      4.000000
 -0.375000  0.416667  0.375000      4.000000
 -0.125000  0.416667  0.375000      4.000000
 
 Following cartesian coordinates:
            Coordinates               Weight
  0.015433  0.015321  0.020368      4.000000
  0.046298  0.015321  0.027001      4.000000
 -0.046298  0.015321  0.007102      4.000000
 -0.015433  0.015321  0.013735      4.000000
  0.015433  0.045963  0.020368      4.000000
  0.046298  0.045963  0.027001      4.000000
 -0.046298  0.045963  0.007102      4.000000
 -0.015433  0.045963  0.013735      4.000000
  0.015433  0.076605  0.020368      4.000000
  0.046298  0.076605  0.027001      4.000000
 -0.046298  0.076605  0.007102      4.000000
 -0.015433  0.076605  0.013735      4.000000
  0.015433  0.015321  0.054471      4.000000
  0.046298  0.015321  0.061103      4.000000
 -0.046298  0.015321  0.041205      4.000000
 -0.015433  0.015321  0.047838      4.000000
  0.015433  0.045963  0.054471      4.000000
  0.046298  0.045963  0.061103      4.000000
 -0.046298  0.045963  0.041205      4.000000
 -0.015433  0.045963  0.047838      4.000000
  0.015433  0.076605  0.054471      4.000000
  0.046298  0.076605  0.061103      4.000000
 -0.046298  0.076605  0.041205      4.000000
 -0.015433  0.076605  0.047838      4.000000
 
 
 Subroutine IBZKPT_HF returns following result:
 ==============================================
 
 Found     96 k-points in 1st BZ
 the following     96 k-points will be used (e.g. in the exchange kernel)
 Following reciprocal coordinates:   # in IRBZ
  0.125000  0.083333  0.125000    0.01041667   1 t-inv F
  0.375000  0.083333  0.125000    0.01041667   2 t-inv F
 -0.375000  0.083333  0.125000    0.01041667   3 t-inv F
 -0.125000  0.083333  0.125000    0.01041667   4 t-inv F
  0.125000  0.250000  0.125000    0.01041667   5 t-inv F
  0.375000  0.250000  0.125000    0.01041667   6 t-inv F
 -0.375000  0.250000  0.125000    0.01041667   7 t-inv F
 -0.125000  0.250000  0.125000    0.01041667   8 t-inv F
  0.125000  0.416667  0.125000    0.01041667   9 t-inv F
  0.375000  0.416667  0.125000    0.01041667  10 t-inv F
 -0.375000  0.416667  0.125000    0.01041667  11 t-inv F
 -0.125000  0.416667  0.125000    0.01041667  12 t-inv F
  0.125000  0.083333  0.375000    0.01041667  13 t-inv F
  0.375000  0.083333  0.375000    0.01041667  14 t-inv F
 -0.375000  0.083333  0.375000    0.01041667  15 t-inv F
 -0.125000  0.083333  0.375000    0.01041667  16 t-inv F
  0.125000  0.250000  0.375000    0.01041667  17 t-inv F
  0.375000  0.250000  0.375000    0.01041667  18 t-inv F
 -0.375000  0.250000  0.375000    0.01041667  19 t-inv F
 -0.125000  0.250000  0.375000    0.01041667  20 t-inv F
  0.125000  0.416667  0.375000    0.01041667  21 t-inv F
  0.375000  0.416667  0.375000    0.01041667  22 t-inv F
 -0.375000  0.416667  0.375000    0.01041667  23 t-inv F
 -0.125000  0.416667  0.375000    0.01041667  24 t-inv F
 -0.125000 -0.083333 -0.125000    0.01041667   1 t-inv F
 -0.125000  0.083333 -0.125000    0.01041667   1 t-inv F
  0.125000 -0.083333  0.125000    0.01041667   1 t-inv F
 -0.375000 -0.083333 -0.125000    0.01041667   2 t-inv F
 -0.375000  0.083333 -0.125000    0.01041667   2 t-inv F
  0.375000 -0.083333  0.125000    0.01041667   2 t-inv F
  0.375000 -0.083333 -0.125000    0.01041667   3 t-inv F
  0.375000  0.083333 -0.125000    0.01041667   3 t-inv F
 -0.375000 -0.083333  0.125000    0.01041667   3 t-inv F
  0.125000 -0.083333 -0.125000    0.01041667   4 t-inv F
  0.125000  0.083333 -0.125000    0.01041667   4 t-inv F
 -0.125000 -0.083333  0.125000    0.01041667   4 t-inv F
 -0.125000 -0.250000 -0.125000    0.01041667   5 t-inv F
 -0.125000  0.250000 -0.125000    0.01041667   5 t-inv F
  0.125000 -0.250000  0.125000    0.01041667   5 t-inv F
 -0.375000 -0.250000 -0.125000    0.01041667   6 t-inv F
 -0.375000  0.250000 -0.125000    0.01041667   6 t-inv F
  0.375000 -0.250000  0.125000    0.01041667   6 t-inv F
  0.375000 -0.250000 -0.125000    0.01041667   7 t-inv F
  0.375000  0.250000 -0.125000    0.01041667   7 t-inv F
 -0.375000 -0.250000  0.125000    0.01041667   7 t-inv F
  0.125000 -0.250000 -0.125000    0.01041667   8 t-inv F
  0.125000  0.250000 -0.125000    0.01041667   8 t-inv F
 -0.125000 -0.250000  0.125000    0.01041667   8 t-inv F
 -0.125000 -0.416667 -0.125000    0.01041667   9 t-inv F
 -0.125000  0.416667 -0.125000    0.01041667   9 t-inv F
  0.125000 -0.416667  0.125000    0.01041667   9 t-inv F
 -0.375000 -0.416667 -0.125000    0.01041667  10 t-inv F
 -0.375000  0.416667 -0.125000    0.01041667  10 t-inv F
  0.375000 -0.416667  0.125000    0.01041667  10 t-inv F
  0.375000 -0.416667 -0.125000    0.01041667  11 t-inv F
  0.375000  0.416667 -0.125000    0.01041667  11 t-inv F
 -0.375000 -0.416667  0.125000    0.01041667  11 t-inv F
  0.125000 -0.416667 -0.125000    0.01041667  12 t-inv F
  0.125000  0.416667 -0.125000    0.01041667  12 t-inv F
 -0.125000 -0.416667  0.125000    0.01041667  12 t-inv F
 -0.125000 -0.083333 -0.375000    0.01041667  13 t-inv F
 -0.125000  0.083333 -0.375000    0.01041667  13 t-inv F
  0.125000 -0.083333  0.375000    0.01041667  13 t-inv F
 -0.375000 -0.083333 -0.375000    0.01041667  14 t-inv F
 -0.375000  0.083333 -0.375000    0.01041667  14 t-inv F
  0.375000 -0.083333  0.375000    0.01041667  14 t-inv F
  0.375000 -0.083333 -0.375000    0.01041667  15 t-inv F
  0.375000  0.083333 -0.375000    0.01041667  15 t-inv F
 -0.375000 -0.083333  0.375000    0.01041667  15 t-inv F
  0.125000 -0.083333 -0.375000    0.01041667  16 t-inv F
  0.125000  0.083333 -0.375000    0.01041667  16 t-inv F
 -0.125000 -0.083333  0.375000    0.01041667  16 t-inv F
 -0.125000 -0.250000 -0.375000    0.01041667  17 t-inv F
 -0.125000  0.250000 -0.375000    0.01041667  17 t-inv F
  0.125000 -0.250000  0.375000    0.01041667  17 t-inv F
 -0.375000 -0.250000 -0.375000    0.01041667  18 t-inv F
 -0.375000  0.250000 -0.375000    0.01041667  18 t-inv F
  0.375000 -0.250000  0.375000    0.01041667  18 t-inv F
  0.375000 -0.250000 -0.375000    0.01041667  19 t-inv F
  0.375000  0.250000 -0.375000    0.01041667  19 t-inv F
 -0.375000 -0.250000  0.375000    0.01041667  19 t-inv F
  0.125000 -0.250000 -0.375000    0.01041667  20 t-inv F
  0.125000  0.250000 -0.375000    0.01041667  20 t-inv F
 -0.125000 -0.250000  0.375000    0.01041667  20 t-inv F
 -0.125000 -0.416667 -0.375000    0.01041667  21 t-inv F
 -0.125000  0.416667 -0.375000    0.01041667  21 t-inv F
  0.125000 -0.416667  0.375000    0.01041667  21 t-inv F
 -0.375000 -0.416667 -0.375000    0.01041667  22 t-inv F
 -0.375000  0.416667 -0.375000    0.01041667  22 t-inv F
  0.375000 -0.416667  0.375000    0.01041667  22 t-inv F
  0.375000 -0.416667 -0.375000    0.01041667  23 t-inv F
  0.375000  0.416667 -0.375000    0.01041667  23 t-inv F
 -0.375000 -0.416667  0.375000    0.01041667  23 t-inv F
  0.125000 -0.416667 -0.375000    0.01041667  24 t-inv F
  0.125000  0.416667 -0.375000    0.01041667  24 t-inv F
 -0.125000 -0.416667  0.375000    0.01041667  24 t-inv F


--------------------------------------------------------------------------------------------------------




 Dimension of arrays:
   k-points           NKPTS =     24   k-points in BZ     NKDIM =     24   number of bands    NBANDS=    115
   number of dos      NEDOS =    301   number of ions     NIONS =     24
   non local maximal  LDIM  =      8   non local SUM 2l+1 LMDIM =     26
   total plane-waves  NPLWV =  73728
   max r-space proj   IRMAX =   2952   max aug-charges    IRDMAX=   8934
   dimension x,y,z NGX =    48 NGY =   32 NGZ =   48
   dimension x,y,z NGXF=    96 NGYF=   64 NGZF=   96
   support grid    NGXF=    96 NGYF=   64 NGZF=   96
   ions per type =               4   4   8   8
   NGX,Y,Z   is equivalent  to a cutoff of   9.85,  9.78, 10.64 a.u.
   NGXF,Y,Z  is equivalent  to a cutoff of  19.70, 19.56, 21.28 a.u.

 SYSTEM =  unknown system                          
 POSCAR =  Sodium difluorodioxoniobate             

 Startparameter for this run:
   NWRITE =      2    write-flag & timer
   PREC   = n         normal or accurate (medium, high low for compatibility)
   ISTART =      0    job   : 0-new  1-cont  2-samecut
   ICHARG =      2    charge: 1-file 2-atom 10-const
   ISPIN  =      1    spin polarized calculation?
   LNONCOLLINEAR =      F non collinear calculations
   LSORBIT =      F    spin-orbit coupling
   INIWAV =      1    electr: 0-lowe 1-rand  2-diag
   LASPH  =      F    aspherical Exc in radial PAW
 Electronic Relaxation 1
   ENCUT  =  550.0 eV  40.42 Ry    6.36 a.u.  15.49 10.40 14.34*2*pi/ulx,y,z
   ENINI  =  550.0     initial cutoff
   ENAUG  =  718.3 eV  augmentation charge cutoff
   NELM   =     60;   NELMIN=  2; NELMDL= -5     # of ELM steps 
   EDIFF  = 0.1E-07   stopping-criterion for ELM
   LREAL  =      T    real-space projection
   NLSPLINE    = F    spline interpolate recip. space projectors
   LCOMPAT=      F    compatible to vasp.4.4
   GGA_COMPAT  = T    GGA compatible to vasp.4.4-vasp.4.6
   LMAXPAW     = -100 max onsite density
   LMAXMIX     =    2 max onsite mixed and CHGCAR
   VOSKOWN=      0    Vosko Wilk Nusair interpolation
   ROPT   =   -0.00050  -0.00050  -0.00050  -0.00050
 Ionic relaxation
   EDIFFG = 0.1E-06   stopping-criterion for IOM
   NSW    =      0    number of steps for IOM
   NBLOCK =      1;   KBLOCK =      1    inner block; outer block 
   IBRION =     -1    ionic relax: 0-MD 1-quasi-New 2-CG
   NFREE  =      0    steps in history (QN), initial steepest desc. (CG)
   ISIF   =      2    stress and relaxation
   IWAVPR =     10    prediction:  0-non 1-charg 2-wave 3-comb
   ISYM   =      2    0-nonsym 1-usesym 2-fastsym
   LCORR  =      T    Harris-Foulkes like correction to forces

   POTIM  = 0.5000    time-step for ionic-motion
   TEIN   =    0.0    initial temperature
   TEBEG  =    0.0;   TEEND  =   0.0 temperature during run
   SMASS  =  -3.00    Nose mass-parameter (am)
   estimated Nose-frequenzy (Omega)   =  0.10E-29 period in steps = 0.13E+47 mass=  -0.150E-26a.u.
   SCALEE = 1.0000    scale energy and forces
   NPACO  =    256;   APACO  = 16.0  distance and # of slots for P.C.
   PSTRESS=    0.0 pullay stress

  Mass of Ions in am
   POMASS =  22.99180.95 16.00 19.00
  Ionic Valenz
   ZVAL   =   9.00 13.00  6.00  7.00
  Atomic Wigner-Seitz radii
   RWIGS  =  -1.00 -1.00 -1.00 -1.00
  virtual crystal weights 
   VCA    =   1.00  1.00  1.00  1.00
   NELECT =     192.0000    total number of electrons
   NUPDOWN=      -1.0000    fix difference up-down

 DOS related values:
   EMIN   =  10.00;   EMAX   =-10.00  energy-range for DOS
   EFERMI =   0.00
   ISMEAR =     0;   SIGMA  =   0.01  broadening in eV -4-tet -1-fermi 0-gaus

 Electronic relaxation 2 (details)
   IALGO  =     38    algorithm
   LDIAG  =      T    sub-space diagonalisation (order eigenvalues)
   LSUBROT=      F    optimize rotation matrix (better conditioning)
   TURBO    =      0    0=normal 1=particle mesh
   IRESTART =      0    0=no restart 2=restart with 2 vectors
   NREBOOT  =      0    no. of reboots
   NMIN     =      0    reboot dimension
   EREF     =   0.00    reference energy to select bands
   IMIX   =      4    mixing-type and parameters
     AMIX     =   0.40;   BMIX     =  1.00
     AMIX_MAG =   1.60;   BMIX_MAG =  1.00
     AMIN     =   0.10
     WC   =   100.;   INIMIX=   1;  MIXPRE=   1;  MAXMIX= -45

 Intra band minimization:
   WEIMIN = 0.0000     energy-eigenvalue tresh-hold
   EBREAK =  0.22E-10  absolut break condition
   DEPER  =   0.30     relativ break condition  

   TIME   =   0.40     timestep for ELM

  volume/ion in A,a.u.               =      13.46        90.81
  Fermi-wavevector in a.u.,A,eV,Ry     =   1.376549  2.601301 25.781509  1.894887
  Thomas-Fermi vector in A             =   2.501784

 Write flags
   LWAVE        =      T    write WAVECAR
   LDOWNSAMPLE  =      F    k-point downsampling of WAVECAR
   LCHARG       =      T    write CHGCAR
   LVTOT        =      F    write LOCPOT, total local potential
   LVHAR        =      F    write LOCPOT, Hartree potential only
   LELF         =      F    write electronic localiz. function (ELF)
   LORBIT       =      0    0 simple, 1 ext, 2 COOP (PROOUT), +10 PAW based schemes


 Dipole corrections
   LMONO  =      F    monopole corrections only (constant potential shift)
   LDIPOL =      F    correct potential (dipole corrections)
   IDIPOL =      0    1-x, 2-y, 3-z, 4-all directions 
   EPSILON=  1.0000000 bulk dielectric constant

 Exchange correlation treatment:
   GGA     =    --    GGA type
   LEXCH   =     8    internal setting for exchange type
   VOSKOWN=      0    Vosko Wilk Nusair interpolation
   LHFCALC =     F    Hartree Fock is set to
   LHFONE  =     F    Hartree Fock one center treatment
   AEXX    =    0.0000 exact exchange contribution

 Linear response parameters
   LEPSILON=     F    determine dielectric tensor
   LRPA    =     F    only Hartree local field effects (RPA)
   LNABLA  =     F    use nabla operator in PAW spheres
   LVEL    =     F    velocity operator in full k-point grid
   LINTERFAST=   F  fast interpolation
   KINTER  =     0    interpolate to denser k-point grid
   CSHIFT  =0.1000    complex shift for real part using Kramers Kronig
   OMEGAMAX=  -1.0    maximum frequency
   DEG_THRESHOLD= 0.2000000E-02 threshold for treating states as degnerate
   RTIME   =   -0.100 relaxation time in fs
  (WPLASMAI=    0.000 imaginary part of plasma frequency in eV, 0.658/RTIME)
   DFIELD  = 0.0000000 0.0000000 0.0000000 field for delta impulse in time

 Orbital magnetization related:
   ORBITALMAG=     F  switch on orbital magnetization
   LMAGBLOCH =     F  use Bloch summation to obtain orbital mag.
   LCHIMAG   =     T  perturbation theory with respect to B field
   DQ        =  0.003000  dq finite difference perturbation B field
   LGAUGE    =     T  gauge transformation for 0 moment terms
   NUCIND    =     F  nuclear independent calculation        
   MAGPOS    =    0.0000    0.0000    0.0000  position of magnetic moment in nuclear independent calculation
   MAGATOM   =     0  atom on which magnetic dipole is placed
   JATOM     =     0  atom on which magnetic dipole is evaluated
   MAGDIPOL  =    0.0000    0.0000    0.0000 magnetic dipole

 Orbital magnetization related:
   ORBITALMAG=     F  switch on orbital magnetization
   LCHIMAG   =     T  perturbation theory with respect to B field
   DQ        =  0.003000  dq finite difference perturbation B field
   LLRAUG    =     F  two centre corrections for induced B field



--------------------------------------------------------------------------------------------------------


 Static calculation
 charge density and potential will be updated during run
 non-spin polarized calculation
 Variant of blocked Davidson
 Davidson routine will perform the subspace rotation
 perform sub-space diagonalisation
    after iterative eigenvector-optimisation
 modified Broyden-mixing scheme, WC =      100.0
 initial mixing is a Kerker type mixing with AMIX =  0.4000 and BMIX =      1.0000
 Hartree-type preconditioning will be used
 using additional bands           19
 real space projection scheme for non local part
 use partial core corrections
 calculate Harris-corrections to forces   (improved forces if not selfconsistent)
 use gradient corrections 
 use of overlap-Matrix (Vanderbilt PP)
 Gauss-broadening in eV      SIGMA  =   0.01


--------------------------------------------------------------------------------------------------------


  energy-cutoff  :      550.00
  volume of cell :      322.96
      direct lattice vectors                 reciprocal lattice vectors
     8.099729538  0.000000000  0.000000000     0.123460913 -0.000000000  0.026531524
     0.000000000  5.439129829  0.000000000     0.000000000  0.183852938 -0.000000000
    -1.575372927  0.000000000  7.330787928     0.000000000  0.000000000  0.136410985

  length of vectors
     8.099729538  5.439129829  7.498149872     0.126279526  0.183852938  0.136410985



 k-points in units of 2pi/SCALE and weight: NbOF3_W11-333-vasp_21-relcw             
   0.01543261  0.01532108  0.02036781       0.042
   0.04629784  0.01532108  0.02700069       0.042
  -0.04629784  0.01532108  0.00710205       0.042
  -0.01543261  0.01532108  0.01373493       0.042
   0.01543261  0.04596323  0.02036781       0.042
   0.04629784  0.04596323  0.02700069       0.042
  -0.04629784  0.04596323  0.00710205       0.042
  -0.01543261  0.04596323  0.01373493       0.042
   0.01543261  0.07660539  0.02036781       0.042
   0.04629784  0.07660539  0.02700069       0.042
  -0.04629784  0.07660539  0.00710205       0.042
  -0.01543261  0.07660539  0.01373493       0.042
   0.01543261  0.01532108  0.05447056       0.042
   0.04629784  0.01532108  0.06110344       0.042
  -0.04629784  0.01532108  0.04120480       0.042
  -0.01543261  0.01532108  0.04783768       0.042
   0.01543261  0.04596323  0.05447056       0.042
   0.04629784  0.04596323  0.06110344       0.042
  -0.04629784  0.04596323  0.04120480       0.042
  -0.01543261  0.04596323  0.04783768       0.042
   0.01543261  0.07660539  0.05447056       0.042
   0.04629784  0.07660539  0.06110344       0.042
  -0.04629784  0.07660539  0.04120480       0.042
  -0.01543261  0.07660539  0.04783768       0.042

 k-points in reciprocal lattice and weights: NbOF3_W11-333-vasp_21-relcw             
   0.12500000  0.08333333  0.12500000       0.042
   0.37500000  0.08333333  0.12500000       0.042
  -0.37500000  0.08333333  0.12500000       0.042
  -0.12500000  0.08333333  0.12500000       0.042
   0.12500000  0.25000000  0.12500000       0.042
   0.37500000  0.25000000  0.12500000       0.042
  -0.37500000  0.25000000  0.12500000       0.042
  -0.12500000  0.25000000  0.12500000       0.042
   0.12500000  0.41666667  0.12500000       0.042
   0.37500000  0.41666667  0.12500000       0.042
  -0.37500000  0.41666667  0.12500000       0.042
  -0.12500000  0.41666667  0.12500000       0.042
   0.12500000  0.08333333  0.37500000       0.042
   0.37500000  0.08333333  0.37500000       0.042
  -0.37500000  0.08333333  0.37500000       0.042
  -0.12500000  0.08333333  0.37500000       0.042
   0.12500000  0.25000000  0.37500000       0.042
   0.37500000  0.25000000  0.37500000       0.042
  -0.37500000  0.25000000  0.37500000       0.042
  -0.12500000  0.25000000  0.37500000       0.042
   0.12500000  0.41666667  0.37500000       0.042
   0.37500000  0.41666667  0.37500000       0.042
  -0.37500000  0.41666667  0.37500000       0.042
  -0.12500000  0.41666667  0.37500000       0.042

 position of ions in fractional coordinates (direct lattice) 
   0.37670001  0.79320002  0.10920000
   0.62329996  0.20679998  0.89080000
   0.62329996  0.29320002  0.39080000
   0.37670001  0.70679998  0.60920000
   0.15807000  0.25979999  0.29815999
   0.84193003  0.74020004  0.70184004
   0.84193003  0.75979996  0.20184001
   0.15807000  0.24020001  0.79815996
   0.19850001  0.15430000  0.05330000
   0.80149996  0.84570003  0.94669998
   0.80149996  0.65429997  0.44670001
   0.19850001  0.34570000  0.55330002
   0.03670000  0.55919999  0.21630000
   0.96329999  0.44080001  0.78369999
   0.96329999  0.05919999  0.28369999
   0.03670000  0.94080001  0.71630001
   0.37639999  0.47189999  0.30370000
   0.62360001  0.52810001  0.69630003
   0.62360001  0.97189999  0.19630000
   0.37639999  0.02810001  0.80369997
   0.33039999  0.98229998  0.37670001
   0.66960001  0.01770002  0.62329996
   0.66960001  0.48229998  0.12329999
   0.33039999  0.51770002  0.87670004

 position of ions in cartesian coordinates  (Angst):
   2.87913751  4.31431787  0.80052205
   3.64521886  1.12481196  6.53026588
   4.43290533  1.59475295  2.86487191
   2.09145104  3.84437688  4.46591601
   0.81061106  1.41308586  2.18574763
   5.71374575  4.02604413  5.14504051
   6.50143226  4.13265061  1.47964633
   0.02292464  1.30647906  5.85114138
   1.52382899  0.83925775  0.39073100
   5.00052741  4.59987224  6.94005676
   5.78821383  3.55882251  3.27466302
   0.73614249  1.88030716  4.05612513
  -0.04349309  3.04156134  1.58564940
   6.56784964  2.39756849  5.74513842
   7.35553610  0.32199643  2.07974445
  -0.83117958  5.11713340  5.25104347
   2.57029739  2.56672529  2.22636029
   3.95405917  2.87240454  5.10442785
   4.74174568  5.28629021  1.43903367
   1.78261098  0.15283962  5.89175404
   2.08270755  5.34285714  2.76150792
   4.44164910  0.09627269  4.56927979
   5.22933552  2.62329223  0.90388605
   1.29502104  2.81583760  6.42690210



--------------------------------------------------------------------------------------------------------


 k-point   1 :   0.1250 0.0833 0.1250  plane waves:    9475
 k-point   2 :   0.3750 0.0833 0.1250  plane waves:    9476
 k-point   3 :  -0.3750 0.0833 0.1250  plane waves:    9466
 k-point   4 :  -0.1250 0.0833 0.1250  plane waves:    9482
 k-point   5 :   0.1250 0.2500 0.1250  plane waves:    9472
 k-point   6 :   0.3750 0.2500 0.1250  plane waves:    9454
 k-point   7 :  -0.3750 0.2500 0.1250  plane waves:    9460
 k-point   8 :  -0.1250 0.2500 0.1250  plane waves:    9472
 k-point   9 :   0.1250 0.4167 0.1250  plane waves:    9436
 k-point  10 :   0.3750 0.4167 0.1250  plane waves:    9465
 k-point  11 :  -0.3750 0.4167 0.1250  plane waves:    9452
 k-point  12 :  -0.1250 0.4167 0.1250  plane waves:    9445
 k-point  13 :   0.1250 0.0833 0.3750  plane waves:    9461
 k-point  14 :   0.3750 0.0833 0.3750  plane waves:    9469
 k-point  15 :  -0.3750 0.0833 0.3750  plane waves:    9454
 k-point  16 :  -0.1250 0.0833 0.3750  plane waves:    9460
 k-point  17 :   0.1250 0.2500 0.3750  plane waves:    9454
 k-point  18 :   0.3750 0.2500 0.3750  plane waves:    9445
 k-point  19 :  -0.3750 0.2500 0.3750  plane waves:    9452
 k-point  20 :  -0.1250 0.2500 0.3750  plane waves:    9457
 k-point  21 :   0.1250 0.4167 0.3750  plane waves:    9458
 k-point  22 :   0.3750 0.4167 0.3750  plane waves:    9440
 k-point  23 :  -0.3750 0.4167 0.3750  plane waves:    9444
 k-point  24 :  -0.1250 0.4167 0.3750  plane waves:    9453

 maximum and minimum number of plane-waves per node :      9482     9436

 maximum number of plane-waves:      9482
 maximum index in each direction: 
   IXMAX=   15   IYMAX=   10   IZMAX=   14
   IXMIN=  -15   IYMIN=  -10   IZMIN=  -14


 serial   3D FFT for wavefunctions
 parallel 3D FFT for charge:
    minimum data exchange during FFTs selected (reduces bandwidth)


 total amount of memory used by VASP MPI-rank0   539702. kBytes
=======================================================================

   base      :      30000. kBytes
   nonlr-proj:       8564. kBytes
   fftplans  :      20492. kBytes
   grid      :      46129. kBytes
   one-center:        778. kBytes
   wavefun   :     433739. kBytes

     INWAV:  cpu time    0.0001: real time    0.0001
 Broyden mixing: mesh for mixing (old mesh)
   NGX = 31   NGY = 21   NGZ = 29
  (NGX  = 96   NGY  = 64   NGZ  = 96)
  gives a total of  18879 points

 initial charge density was supplied:
 charge density of overlapping atoms calculated
 number of electron     192.0000000 magnetization 
 keeping initial charge density in first step


--------------------------------------------------------------------------------------------------------


 Maximum index for non-local projection operator         2823
 Maximum index for augmentation-charges         8481 (set IRDMAX)


--------------------------------------------------------------------------------------------------------


 First call to EWALD:  gamma=   0.258
 Maximum number of real-space cells 2x 3x 3
 Maximum number of reciprocal cells 3x 2x 3

    FEWALD:  cpu time    0.0057: real time    0.0057


--------------------------------------- Iteration      1(   1)  ---------------------------------------


    POTLOK:  cpu time    0.3203: real time    0.3203
    SETDIJ:  cpu time    0.0420: real time    0.0420
     EDDAV:  cpu time   49.6509: real time   49.6552
       DOS:  cpu time    0.0024: real time    0.0024
    --------------------------------------------
      LOOP:  cpu time   50.0156: real time   50.0199

 eigenvalue-minimisations  :  5560
 total energy-change (2. order) : 0.3545487E+04  (-0.1041507E+05)
 number of electron     192.0000000 magnetization 
 augmentation part      192.0000000 magnetization 

 Free energy of the ion-electron system (eV)
  ---------------------------------------------------
  alpha Z        PSCENC =       648.25968993
  Ewald energy   TEWEN  =    -12684.53213888
  -Hartree energ DENC   =     -5843.16849995
  -exchange      EXHF   =         0.00000000
  -V(xc)+E(xc)   XCENC  =       545.38507980
  PAW double counting   =     15770.03970857   -16012.19339467
  entropy T*S    EENTRO =        -0.00042294
  eigenvalues    EBANDS =       798.79682690
  atomic energy  EATOM  =     20322.90063010
  Solvation  Ediel_sol  =         0.00000000
  ---------------------------------------------------
  free energy    TOTEN  =      3545.48747886 eV

  energy without entropy =     3545.48790180  energy(sigma->0) =     3545.48769033


--------------------------------------------------------------------------------------------------------




--------------------------------------- Iteration      1(   2)  ---------------------------------------


     EDDAV:  cpu time   54.5071: real time   54.5118
       DOS:  cpu time    0.0012: real time    0.0012
    --------------------------------------------
      LOOP:  cpu time   54.5083: real time   54.5130

 eigenvalue-minimisations  :  5575
 total energy-change (2. order) :-0.3134401E+04  (-0.2934377E+04)
 number of electron     192.0000000 magnetization 
 augmentation part      192.0000000 magnetization 

 Free energy of the ion-electron system (eV)
  ---------------------------------------------------
  alpha Z        PSCENC =       648.25968993
  Ewald energy   TEWEN  =    -12684.53213888
  -Hartree energ DENC   =     -5843.16849995
  -exchange      EXHF   =         0.00000000
  -V(xc)+E(xc)   XCENC  =       545.38507980
  PAW double counting   =     15770.03970857   -16012.19339467
  entropy T*S    EENTRO =        -0.00000000
  eigenvalues    EBANDS =     -2335.60459487
  atomic energy  EATOM  =     20322.90063010
  Solvation  Ediel_sol  =         0.00000000
  ---------------------------------------------------
  free energy    TOTEN  =       411.08648004 eV

  energy without entropy =      411.08648004  energy(sigma->0) =      411.08648004


--------------------------------------------------------------------------------------------------------




--------------------------------------- Iteration      1(   3)  ---------------------------------------


     EDDAV:  cpu time   66.7720: real time   66.7775
       DOS:  cpu time    0.0007: real time    0.0007
    --------------------------------------------
      LOOP:  cpu time   66.7727: real time   66.7782

 eigenvalue-minimisations  :  8780
 total energy-change (2. order) :-0.6180889E+03  (-0.6047142E+03)
 number of electron     192.0000000 magnetization 
 augmentation part      192.0000000 magnetization 

 Free energy of the ion-electron system (eV)
  ---------------------------------------------------
  alpha Z        PSCENC =       648.25968993
  Ewald energy   TEWEN  =    -12684.53213888
  -Hartree energ DENC   =     -5843.16849995
  -exchange      EXHF   =         0.00000000
  -V(xc)+E(xc)   XCENC  =       545.38507980
  PAW double counting   =     15770.03970857   -16012.19339467
  entropy T*S    EENTRO =        -0.00000000
  eigenvalues    EBANDS =     -2953.69346488
  atomic energy  EATOM  =     20322.90063010
  Solvation  Ediel_sol  =         0.00000000
  ---------------------------------------------------
  free energy    TOTEN  =      -207.00238998 eV

  energy without entropy =     -207.00238998  energy(sigma->0) =     -207.00238998


--------------------------------------------------------------------------------------------------------




--------------------------------------- Iteration      1(   4)  ---------------------------------------


     EDDAV:  cpu time   64.7464: real time   64.7518
       DOS:  cpu time    0.0006: real time    0.0006
    --------------------------------------------
      LOOP:  cpu time   64.7471: real time   64.7525

 eigenvalue-minimisations  :  8760
 total energy-change (2. order) :-0.3410022E+02  (-0.3399020E+02)
 number of electron     192.0000000 magnetization 
 augmentation part      192.0000000 magnetization 

 Free energy of the ion-electron system (eV)
  ---------------------------------------------------
  alpha Z        PSCENC =       648.25968993
  Ewald energy   TEWEN  =    -12684.53213888
  -Hartree energ DENC   =     -5843.16849995
  -exchange      EXHF   =         0.00000000
  -V(xc)+E(xc)   XCENC  =       545.38507980
  PAW double counting   =     15770.03970857   -16012.19339467
  entropy T*S    EENTRO =        -0.00000000
  eigenvalues    EBANDS =     -2987.79368090
  atomic energy  EATOM  =     20322.90063010
  Solvation  Ediel_sol  =         0.00000000
  ---------------------------------------------------
  free energy    TOTEN  =      -241.10260600 eV

  energy without entropy =     -241.10260600  energy(sigma->0) =     -241.10260600


--------------------------------------------------------------------------------------------------------




--------------------------------------- Iteration      1(   5)  ---------------------------------------


     EDDAV:  cpu time   66.2629: real time   66.2684
       DOS:  cpu time    0.0006: real time    0.0006
    CHARGE:  cpu time    2.3687: real time    2.3689
    MIXING:  cpu time    0.0092: real time    0.0092
    --------------------------------------------
      LOOP:  cpu time   68.6414: real time   68.6471

 eigenvalue-minimisations  :  8568
 total energy-change (2. order) :-0.5275174E+00  (-0.5266977E+00)
 number of electron     191.9999846 magnetization 
 augmentation part       26.9242722 magnetization 

 Broyden mixing:
  rms(total) = 0.11412E+02    rms(broyden)= 0.11411E+02
  rms(prec ) = 0.12181E+02
  weight for this iteration     100.00

 Free energy of the ion-electron system (eV)
  ---------------------------------------------------
  alpha Z        PSCENC =       648.25968993
  Ewald energy   TEWEN  =    -12684.53213888
  -Hartree energ DENC   =     -5843.16849995
  -exchange      EXHF   =         0.00000000
  -V(xc)+E(xc)   XCENC  =       545.38507980
  PAW double counting   =     15770.03970857   -16012.19339467
  entropy T*S    EENTRO =        -0.00000000
  eigenvalues    EBANDS =     -2988.32119825
  atomic energy  EATOM  =     20322.90063010
  Solvation  Ediel_sol  =         0.00000000
  ---------------------------------------------------
  free energy    TOTEN  =      -241.63012335 eV

  energy without entropy =     -241.63012335  energy(sigma->0) =     -241.63012335


--------------------------------------------------------------------------------------------------------




--------------------------------------- Iteration      1(   6)  ---------------------------------------


    POTLOK:  cpu time    0.3064: real time    0.3064
    SETDIJ:  cpu time    0.0414: real time    0.0414
     EDDAV:  cpu time   66.8276: real time   66.8332
       DOS:  cpu time    0.0006: real time    0.0006
    CHARGE:  cpu time    2.3376: real time    2.3378
    MIXING:  cpu time    0.0086: real time    0.0086
    --------------------------------------------
      LOOP:  cpu time   69.5222: real time   69.5280

 eigenvalue-minimisations  :  8624
 total energy-change (2. order) : 0.4286273E+02  (-0.1804047E+02)
 number of electron     191.9999877 magnetization 
 augmentation part       23.1877396 magnetization 

 Broyden mixing:
  rms(total) = 0.19659E+02    rms(broyden)= 0.19659E+02
  rms(prec ) = 0.19695E+02
  weight for this iteration     100.00

 eigenvalues of (default mixing * dielectric matrix)
  average eigenvalue GAMMA=   0.8447
  0.8447

 Free energy of the ion-electron system (eV)
  ---------------------------------------------------
  alpha Z        PSCENC =       648.25968993
  Ewald energy   TEWEN  =    -12684.53213888
  -Hartree energ DENC   =     -5989.48747801
  -exchange      EXHF   =         0.00000000
  -V(xc)+E(xc)   XCENC  =       561.67293202
  PAW double counting   =     18427.11921722   -18685.61702678
  entropy T*S    EENTRO =        -0.00000000
  eigenvalues    EBANDS =     -2799.08321552
  atomic energy  EATOM  =     20322.90063010
  Solvation  Ediel_sol  =         0.00000000
  ---------------------------------------------------
  free energy    TOTEN  =      -198.76738992 eV

  energy without entropy =     -198.76738992  energy(sigma->0) =     -198.76738992


--------------------------------------------------------------------------------------------------------




--------------------------------------- Iteration      1(   7)  ---------------------------------------


    POTLOK:  cpu time    0.3050: real time    0.3050
    SETDIJ:  cpu time    0.0411: real time    0.0411
     EDDAV:  cpu time   67.9372: real time   67.9429
       DOS:  cpu time    0.0007: real time    0.0007
    CHARGE:  cpu time    2.3612: real time    2.3615
    MIXING:  cpu time    0.0088: real time    0.0088
    --------------------------------------------
      LOOP:  cpu time   70.6540: real time   70.6600

 eigenvalue-minimisations  :  8464
 total energy-change (2. order) :-0.3732287E+01  (-0.1282026E+01)
 number of electron     191.9999878 magnetization 
 augmentation part       22.8202486 magnetization 

 Broyden mixing:
  rms(total) = 0.17354E+02    rms(broyden)= 0.17354E+02
  rms(prec ) = 0.17433E+02
  weight for this iteration     100.00

 eigenvalues of (default mixing * dielectric matrix)
  average eigenvalue GAMMA=   2.0687
  0.8101  3.3272

 Free energy of the ion-electron system (eV)
  ---------------------------------------------------
  alpha Z        PSCENC =       648.25968993
  Ewald energy   TEWEN  =    -12684.53213888
  -Hartree energ DENC   =     -6018.39057177
  -exchange      EXHF   =         0.00000000
  -V(xc)+E(xc)   XCENC  =       563.45888656
  PAW double counting   =     17026.80255666   -17287.48326101
  entropy T*S    EENTRO =        -0.00000000
  eigenvalues    EBANDS =     -2773.51546818
  atomic energy  EATOM  =     20322.90063010
  Solvation  Ediel_sol  =         0.00000000
  ---------------------------------------------------
  free energy    TOTEN  =      -202.49967660 eV

  energy without entropy =     -202.49967660  energy(sigma->0) =     -202.49967660


--------------------------------------------------------------------------------------------------------




--------------------------------------- Iteration      1(   8)  ---------------------------------------


    POTLOK:  cpu time    0.3134: real time    0.3134
    SETDIJ:  cpu time    0.0417: real time    0.0417
     EDDAV:  cpu time   65.0248: real time   65.0302
       DOS:  cpu time    0.0007: real time    0.0007
    CHARGE:  cpu time    2.6108: real time    2.6111
    MIXING:  cpu time    0.0111: real time    0.0111
    --------------------------------------------
      LOOP:  cpu time   68.0026: real time   68.0083

 eigenvalue-minimisations  :  8272
 total energy-change (2. order) :-0.2828571E+01  (-0.2501943E+01)
 number of electron     191.9999872 magnetization 
 augmentation part       24.0684516 magnetization 

 Broyden mixing:
  rms(total) = 0.31878E+02    rms(broyden)= 0.31878E+02
  rms(prec ) = 0.31934E+02
  weight for this iteration     100.00

 eigenvalues of (default mixing * dielectric matrix)
  average eigenvalue GAMMA=   1.8122
  2.3210  2.3210  0.7945

 Free energy of the ion-electron system (eV)
  ---------------------------------------------------
  alpha Z        PSCENC =       648.25968993
  Ewald energy   TEWEN  =    -12684.53213888
  -Hartree energ DENC   =     -6002.20016484
  -exchange      EXHF   =         0.00000000
  -V(xc)+E(xc)   XCENC  =       560.10696669
  PAW double counting   =     13251.76242429   -13506.62424198
  entropy T*S    EENTRO =        -0.00000000
  eigenvalues    EBANDS =     -2795.00141269
  atomic energy  EATOM  =     20322.90063010
  Solvation  Ediel_sol  =         0.00000000
  ---------------------------------------------------
  free energy    TOTEN  =      -205.32824737 eV

  energy without entropy =     -205.32824737  energy(sigma->0) =     -205.32824737


--------------------------------------------------------------------------------------------------------




--------------------------------------- Iteration      1(   9)  ---------------------------------------


    POTLOK:  cpu time    0.3745: real time    0.3745
    SETDIJ:  cpu time    0.0490: real time    0.0490
     EDDAV:  cpu time   66.5837: real time   66.5893
       DOS:  cpu time    0.0006: real time    0.0006
    CHARGE:  cpu time    2.4152: real time    2.4154
    MIXING:  cpu time    0.0096: real time    0.0096
    --------------------------------------------
      LOOP:  cpu time   69.4326: real time   69.4384

 eigenvalue-minimisations  :  8768
 total energy-change (2. order) : 0.8857741E+01  (-0.2915730E+01)
 number of electron     191.9999875 magnetization 
 augmentation part       23.5500687 magnetization 

 Broyden mixing:
  rms(total) = 0.29157E+02    rms(broyden)= 0.29157E+02
  rms(prec ) = 0.29160E+02
  weight for this iteration     100.00

 eigenvalues of (default mixing * dielectric matrix)
  average eigenvalue GAMMA=   1.2300
  1.7262  1.7262  0.7338  0.7338

 Free energy of the ion-electron system (eV)
  ---------------------------------------------------
  alpha Z        PSCENC =       648.25968993
  Ewald energy   TEWEN  =    -12684.53213888
  -Hartree energ DENC   =     -5910.24077149
  -exchange      EXHF   =         0.00000000
  -V(xc)+E(xc)   XCENC  =       557.85320773
  PAW double counting   =     41699.60203988   -41953.84911249
  entropy T*S    EENTRO =        -0.00000000
  eigenvalues    EBANDS =     -2876.46405133
  atomic energy  EATOM  =     20322.90063010
  Solvation  Ediel_sol  =         0.00000000
  ---------------------------------------------------
  free energy    TOTEN  =      -196.47050655 eV

  energy without entropy =     -196.47050655  energy(sigma->0) =     -196.47050655


--------------------------------------------------------------------------------------------------------




--------------------------------------- Iteration      1(  10)  ---------------------------------------


    POTLOK:  cpu time    0.3145: real time    0.3145
    SETDIJ:  cpu time    0.0425: real time    0.0425
     EDDAV:  cpu time   67.7703: real time   67.7760
       DOS:  cpu time    0.0006: real time    0.0006
    CHARGE:  cpu time    2.4116: real time    2.4118
    MIXING:  cpu time    0.0100: real time    0.0100
    --------------------------------------------
      LOOP:  cpu time   70.5494: real time   70.5553

 eigenvalue-minimisations  :  8352
 total energy-change (2. order) :-0.3974510E+00  (-0.4388768E+00)
 number of electron     191.9999875 magnetization 
 augmentation part       23.3527668 magnetization 

 Broyden mixing:
  rms(total) = 0.21993E+02    rms(broyden)= 0.21993E+02
  rms(prec ) = 0.21999E+02
  weight for this iteration     100.00

 eigenvalues of (default mixing * dielectric matrix)
  average eigenvalue GAMMA=   0.9723
  1.6783  1.6783  0.6569  0.6569  0.1910

 Free energy of the ion-electron system (eV)
  ---------------------------------------------------
  alpha Z        PSCENC =       648.25968993
  Ewald energy   TEWEN  =    -12684.53213888
  -Hartree energ DENC   =     -5914.23974603
  -exchange      EXHF   =         0.00000000
  -V(xc)+E(xc)   XCENC  =       558.00625172
  PAW double counting   =     34004.43329242   -34257.62910948
  entropy T*S    EENTRO =        -0.00000000
  eigenvalues    EBANDS =     -2874.06682733
  atomic energy  EATOM  =     20322.90063010
  Solvation  Ediel_sol  =         0.00000000
  ---------------------------------------------------
  free energy    TOTEN  =      -196.86795754 eV

  energy without entropy =     -196.86795754  energy(sigma->0) =     -196.86795754


--------------------------------------------------------------------------------------------------------




--------------------------------------- Iteration      1(  11)  ---------------------------------------


    POTLOK:  cpu time    0.3175: real time    0.3176
    SETDIJ:  cpu time    0.0418: real time    0.0418
     EDDAV:  cpu time   72.1720: real time   72.1780
       DOS:  cpu time    0.0006: real time    0.0006
    CHARGE:  cpu time    2.3992: real time    2.3994
    MIXING:  cpu time    0.0103: real time    0.0103
    --------------------------------------------
      LOOP:  cpu time   74.9414: real time   74.9477

 eigenvalue-minimisations  :  9064
 total energy-change (2. order) : 0.2226540E+00  (-0.3920426E-01)
 number of electron     191.9999875 magnetization 
 augmentation part       23.4595815 magnetization 

 Broyden mixing:
  rms(total) = 0.15497E+02    rms(broyden)= 0.15497E+02
  rms(prec ) = 0.15501E+02
  weight for this iteration     100.00

 eigenvalues of (default mixing * dielectric matrix)
  average eigenvalue GAMMA=   1.1406
  2.1237  1.0627  1.0627  1.1099  0.7425  0.7425

 Free energy of the ion-electron system (eV)
  ---------------------------------------------------
  alpha Z        PSCENC =       648.25968993
  Ewald energy   TEWEN  =    -12684.53213888
  -Hartree energ DENC   =     -5914.94176387
  -exchange      EXHF   =         0.00000000
  -V(xc)+E(xc)   XCENC  =       557.59506281
  PAW double counting   =     29513.28382590   -29764.15574955
  entropy T*S    EENTRO =        -0.00000000
  eigenvalues    EBANDS =     -2875.05485994
  atomic energy  EATOM  =     20322.90063010
  Solvation  Ediel_sol  =         0.00000000
  ---------------------------------------------------
  free energy    TOTEN  =      -196.64530350 eV

  energy without entropy =     -196.64530350  energy(sigma->0) =     -196.64530350


--------------------------------------------------------------------------------------------------------




--------------------------------------- Iteration      1(  12)  ---------------------------------------


    POTLOK:  cpu time    0.3112: real time    0.3113
    SETDIJ:  cpu time    0.0424: real time    0.0424
     EDDAV:  cpu time   67.5245: real time   67.5302
       DOS:  cpu time    0.0006: real time    0.0006
    CHARGE:  cpu time    2.3444: real time    2.3446
    MIXING:  cpu time    0.0111: real time    0.0111
    --------------------------------------------
      LOOP:  cpu time   70.2343: real time   70.2402

 eigenvalue-minimisations  :  8312
 total energy-change (2. order) : 0.1379490E+00  (-0.3009404E-01)
 number of electron     191.9999874 magnetization 
 augmentation part       23.5540876 magnetization 

 Broyden mixing:
  rms(total) = 0.23397E+01    rms(broyden)= 0.23397E+01
  rms(prec ) = 0.23434E+01
  weight for this iteration     100.00

 eigenvalues of (default mixing * dielectric matrix)
  average eigenvalue GAMMA=   1.3800
  1.9088  1.9088  2.2272  1.2169  0.7998  0.7998  0.7984

 Free energy of the ion-electron system (eV)
  ---------------------------------------------------
  alpha Z        PSCENC =       648.25968993
  Ewald energy   TEWEN  =    -12684.53213888
  -Hartree energ DENC   =     -5922.33818502
  -exchange      EXHF   =         0.00000000
  -V(xc)+E(xc)   XCENC  =       557.43773195
  PAW double counting   =     23751.21065312   -23997.87274302
  entropy T*S    EENTRO =        -0.00000000
  eigenvalues    EBANDS =     -2871.57299270
  atomic energy  EATOM  =     20322.90063010
  Solvation  Ediel_sol  =         0.00000000
  ---------------------------------------------------
  free energy    TOTEN  =      -196.50735451 eV

  energy without entropy =     -196.50735451  energy(sigma->0) =     -196.50735451


--------------------------------------------------------------------------------------------------------




--------------------------------------- Iteration      1(  13)  ---------------------------------------


    POTLOK:  cpu time    0.3153: real time    0.3153
    SETDIJ:  cpu time    0.0428: real time    0.0428
     EDDAV:  cpu time   70.1051: real time   70.1110
       DOS:  cpu time    0.0007: real time    0.0007
    CHARGE:  cpu time    2.4941: real time    2.4944
    MIXING:  cpu time    0.0111: real time    0.0111
    --------------------------------------------
      LOOP:  cpu time   72.9691: real time   72.9753

 eigenvalue-minimisations  :  8576
 total energy-change (2. order) : 0.2249228E-01  (-0.1059630E-01)
 number of electron     191.9999874 magnetization 
 augmentation part       23.6233095 magnetization 

 Broyden mixing:
  rms(total) = 0.65016E+00    rms(broyden)= 0.65016E+00
  rms(prec ) = 0.65254E+00
  weight for this iteration     100.00

 eigenvalues of (default mixing * dielectric matrix)
  average eigenvalue GAMMA=   1.3505
  1.6601  1.6601  2.5078  1.3114  1.3114  0.8259  0.8259  0.7012

 Free energy of the ion-electron system (eV)
  ---------------------------------------------------
  alpha Z        PSCENC =       648.25968993
  Ewald energy   TEWEN  =    -12684.53213888
  -Hartree energ DENC   =     -5927.82535595
  -exchange      EXHF   =         0.00000000
  -V(xc)+E(xc)   XCENC  =       557.36506400
  PAW double counting   =     22638.60411939   -22883.68056367
  entropy T*S    EENTRO =        -0.00000000
  eigenvalues    EBANDS =     -2867.57630715
  atomic energy  EATOM  =     20322.90063010
  Solvation  Ediel_sol  =         0.00000000
  ---------------------------------------------------
  free energy    TOTEN  =      -196.48486223 eV

  energy without entropy =     -196.48486223  energy(sigma->0) =     -196.48486223


--------------------------------------------------------------------------------------------------------




--------------------------------------- Iteration      1(  14)  ---------------------------------------


    POTLOK:  cpu time    0.3062: real time    0.3062
    SETDIJ:  cpu time    0.0417: real time    0.0417
     EDDAV:  cpu time   63.0350: real time   63.0403
[...]
    18     -0.316105E+01      0.192716E+01     -0.685164E+02
    19     -0.253287E+01     -0.138042E+01     -0.682498E+02
    20     -0.253281E+01     -0.138037E+01     -0.682502E+02
    21     -0.595992E+01      0.949529E+01     -0.562673E+02
    22     -0.595996E+01      0.949529E+01     -0.562672E+02
    23     -0.469315E+01     -0.833116E+01     -0.553941E+02
    24     -0.469319E+01     -0.833118E+01     -0.553940E+02

 -------------------------------------------------------------
   one center paramagnetic contribution
 -------------------------------------------------------------
     1     -0.268040E+01     -0.294206E+01      0.626313E+02
     2     -0.268040E+01     -0.294209E+01      0.626313E+02
     3     -0.294083E+01      0.367320E+01      0.635160E+02
     4     -0.294083E+01      0.367318E+01      0.635159E+02
     5     -0.147970E+02     -0.236794E+03      0.608768E+04
     6     -0.147976E+02     -0.236797E+03      0.608768E+04
     7     -0.306907E+01      0.226327E+03      0.608223E+04
     8     -0.307263E+01      0.226327E+03      0.608223E+04
     9      0.538330E+02      0.136927E+02      0.280603E+03
    10      0.538327E+02      0.136926E+02      0.280603E+03
    11      0.536745E+02     -0.130881E+02      0.259643E+03
    12      0.536748E+02     -0.130878E+02      0.259642E+03
    13     -0.430428E+02      0.472800E+02      0.622240E+03
    14     -0.430430E+02      0.472802E+02      0.622242E+03
    15     -0.351027E+02     -0.422785E+02      0.624495E+03
    16     -0.351027E+02     -0.422786E+02      0.624494E+03
    17     -0.157186E+02      0.699577E+01      0.260095E+03
    18     -0.157182E+02      0.699556E+01      0.260094E+03
    19     -0.125564E+02     -0.435108E+01      0.261286E+03
    20     -0.125562E+02     -0.435083E+01      0.261284E+03
    21     -0.299828E+02      0.432384E+02      0.318040E+03
    22     -0.299830E+02      0.432384E+02      0.318040E+03
    23     -0.243142E+02     -0.373655E+02      0.321894E+03
    24     -0.243144E+02     -0.373656E+02      0.321894E+03

 -------------------------------------------------------------
   one center diamagnetic contribution
 -------------------------------------------------------------
     1      0.313492E-02      0.205940E-01     -0.153676E+03
     2      0.313481E-02      0.205942E-01     -0.153676E+03
     3      0.274315E-02     -0.207837E-01     -0.153677E+03
     4      0.274311E-02     -0.207840E-01     -0.153677E+03
     5     -0.312221E-02      0.382023E-01      0.398096E+02
     6     -0.312230E-02      0.382025E-01      0.398096E+02
     7     -0.422470E-02     -0.369893E-01      0.398076E+02
     8     -0.422489E-02     -0.369894E-01      0.398076E+02
     9      0.106697E+00     -0.214325E-01     -0.335706E+02
    10      0.106697E+00     -0.214325E-01     -0.335707E+02
    11      0.104761E+00      0.177945E-01     -0.335718E+02
    12      0.104760E+00      0.177946E-01     -0.335718E+02
    13     -0.315037E-01      0.405048E-02     -0.334744E+02
    14     -0.315033E-01      0.404979E-02     -0.334744E+02
    15     -0.277652E-01     -0.677038E-02     -0.334763E+02
    16     -0.277649E-01     -0.677027E-02     -0.334763E+02
    17     -0.569214E-01      0.240740E-01     -0.417294E+02
    18     -0.569218E-01      0.240736E-01     -0.417294E+02
    19     -0.563170E-01     -0.244646E-01     -0.417290E+02
    20     -0.563177E-01     -0.244646E-01     -0.417290E+02
    21     -0.802263E-01      0.146634E+00     -0.416316E+02
    22     -0.802269E-01      0.146635E+00     -0.416316E+02
    23     -0.790035E-01     -0.148828E+00     -0.416288E+02
    24     -0.790037E-01     -0.148829E+00     -0.416288E+02
 -------------------------------------------------------------
 -------------------------------------------------------------


 -------------------------------------------------------------
  Absolute Chemical Shift tensors
 -------------------------------------------------------------
  UNSYMMETRIZED TENSORS 
 ion    1
       -178.680897         -7.172365         -3.221323
         -7.044426       -186.776878         -4.108134
         -2.462850         -3.479195       -180.038491
 ion    2
       -178.680802         -7.172356         -3.221314
         -7.044430       -186.776819         -4.108099
         -2.462857         -3.479224       -180.038453
 ion    3
       -178.084834          7.101196         -2.175838
          6.007011       -186.074570          5.624207
         -2.706805          4.168036       -179.109937
 ion    4
       -178.084852          7.101164         -2.175843
          6.006968       -186.074563          5.624209
         -2.706811          4.168014       -179.109966
 ion    5
       6365.626448         16.306528        -29.578837
       -220.945193       6359.837928        -53.589632
        -15.244910       -243.162669       6081.770038
 ion    6
       6365.630506         16.299149        -29.578484
       -220.959917       6359.849536        -53.593102
        -15.245460       -243.166097       6081.775868
 ion    7
       6493.368407         -5.538241         20.542949
        210.494471       6451.837008         35.422645
         -3.465656        232.385197       6075.914182
 ion    8
       6493.360472         -5.536429         20.541386
        210.492494       6451.837828         35.418796
         -3.469267        232.385661       6075.911082
 ion    9
        575.500678        -12.566884         52.064159
          5.748794        567.743020         49.461620
         64.075875         16.181223        203.706599
 ion   10
        575.497616        -12.567991         52.063399
          5.747596        567.739524         49.461529
         64.075451         16.181116        203.705674
 ion   11
        589.185533          0.812779         74.921764
        -10.708714        572.974079        -39.338048
         63.944703        -15.416575        178.625695
 ion   12
        589.183950          0.812537         74.921813
        -10.708595        572.972643        -39.337728
         63.945008        -15.416249        178.625044
 ion   13
        384.422658        217.095770        -57.429605
        193.793335        381.708895         48.887533
        -51.745213         55.807117        610.339539
 ion   14
        384.423974        217.096170        -57.429996
        193.793558        381.710545         48.887600
        -51.745461         55.807293        610.342527
 ion   15
        368.744846       -234.346436        -54.518361
       -195.141989        377.730084        -49.153603
        -42.162946        -49.821427        613.069518
 ion   16
        368.743576       -234.345796        -54.518165
       -195.141367        377.729330        -49.153497
        -42.162976        -49.821606        613.067769
 ion   17
         31.093266        -28.772049         -8.898872
        -23.542839         75.146738          7.506212
        -18.936651          8.947053        149.848720
 ion   18
         31.093626        -28.771769         -8.898496
        -23.542709         75.147061          7.505680
        -18.936185          8.946801        149.848668
 ion   19
         37.059783         36.636058        -12.437294
         23.343875         79.812681        -10.746961
        -15.145633         -5.755964        151.307298
 ion   20
         37.058919         36.635024        -12.437301
         23.342898         79.811406        -10.747488
        -15.145312         -5.755658        151.305273
 ion   21
        108.906886         31.335628        -36.388505
         31.617352         85.021166         42.343598
        -36.022934         52.880351        220.140645
 ion   22
        108.906766         31.334378        -36.388534
         31.616552         85.020636         42.343663
        -36.023173         52.880339        220.141258
 ion   23
         94.353442        -38.949667        -23.106523
        -35.450240         79.851185        -42.440210
        -29.086392        -45.845450        224.871028
 ion   24
         94.353371        -38.948676        -23.106472
        -35.449354         79.850900        -42.440199
        -29.086596        -45.845564        224.871353
  SYMMETRIZED TENSORS 
 ion    1
       -178.382846         -7.136770         -2.698580
         -6.525709       -186.425707         -4.866162
         -2.584831         -3.823617       -179.574212
 ion    2
       -178.382846         -7.136770         -2.698580
         -6.525709       -186.425707         -4.866162
         -2.584831         -3.823617       -179.574212
 ion    3
       -178.382846          7.136770         -2.698580
          6.525709       -186.425707          4.866162
         -2.584831          3.823617       -179.574212
 ion    4
       -178.382846          7.136770         -2.698580
          6.525709       -186.425707          4.866162
         -2.584831          3.823617       -179.574212
 ion    5
       6429.496458         10.920087         -4.518246
       -215.723019       6405.840575        -44.506044
         -9.356323       -237.774906       6078.842793
 ion    6
       6429.496458         10.920087         -4.518246
       -215.723019       6405.840575        -44.506044
         -9.356323       -237.774906       6078.842793
 ion    7
       6429.496458        -10.920087         -4.518246
        215.723019       6405.840575         44.506044
         -9.356323        237.774906       6078.842793
 ion    8
       6429.496458        -10.920087         -4.518246
        215.723019       6405.840575         44.506044
         -9.356323        237.774906       6078.842793
 ion    9
        582.341944         -6.690048         63.492783
          8.228424        570.357317         44.399732
         64.010259         15.798791        191.165753
 ion   10
        582.341944         -6.690048         63.492783
          8.228424        570.357317         44.399732
         64.010259         15.798791        191.165753
 ion   11
        582.341944          6.690048         63.492783
         -8.228424        570.357317        -44.399732
         64.010259        -15.798791        191.165753
 ion   12
        582.341944          6.690048         63.492783
         -8.228424        570.357317        -44.399732
         64.010259        -15.798791        191.165753
 ion   13
        376.583764        225.721043        -55.974032
        194.467562        379.719713         49.020558
        -46.954149         52.814361        611.704838
 ion   14
        376.583764        225.721043        -55.974032
        194.467562        379.719713         49.020558
        -46.954149         52.814361        611.704838
 ion   15
        376.583764       -225.721043        -55.974032
       -194.467562        379.719713        -49.020558
        -46.954149        -52.814361        611.704838
 ion   16
        376.583764       -225.721043        -55.974032
       -194.467562        379.719713        -49.020558
        -46.954149        -52.814361        611.704838
 ion   17
         34.076399        -32.703725        -10.667991
        -23.443080         77.479471          9.126585
        -17.040945          7.351369        150.577490
 ion   18
         34.076399        -32.703725        -10.667991
        -23.443080         77.479471          9.126585
        -17.040945          7.351369        150.577490
 ion   19
         34.076399         32.703725        -10.667991
         23.443080         77.479471         -9.126585
        -17.040945         -7.351369        150.577490
 ion   20
         34.076399         32.703725        -10.667991
         23.443080         77.479471         -9.126585
        -17.040945         -7.351369        150.577490
 ion   21
        101.630116         35.142087        -29.747509
         33.533375         82.435972         42.391917
        -32.554774         49.362926        222.506071
 ion   22
        101.630116         35.142087        -29.747509
         33.533375         82.435972         42.391917
        -32.554774         49.362926        222.506071
 ion   23
        101.630116        -35.142087        -29.747509
        -33.533375         82.435972        -42.391917
        -32.554774        -49.362926        222.506071
 ion   24
        101.630116        -35.142087        -29.747509
        -33.533375         82.435972        -42.391917
        -32.554774        -49.362926        222.506071
 -------------------------------------------------------------


 -------------------------------------------------------------
  G=0 CONTRIBUTION TO CHEMICAL SHIFT (field along BDIR) 
 -------------------------------------------------------------
   BDIR                X                 Y                 Z
 -------------------------------------------------------------
     1         -4.211523          0.000000          0.012691
     2          0.000000         -4.191712          0.000000
     3          0.003402          0.000000         -4.385242
 -------------------------------------------------------------

  Approximate magnetic susceptibility, pGv (10^-6 cm^3/mole) 
     1        -97.773727          0.000000          0.294636
     2          0.000000        -97.313790          0.000000
     3          0.078976          0.000000       -101.806737
 -------------------------------------------------------------


 --------------------------------------------------------------------------
  Core NMR properties        

  typ  El   Core shift (ppm)
 ----------------------------
    1  Na    -377.2811014
    2  Ta   -9212.7246451
    3  O     -271.0766935
    4  F     -306.4193758
 ----------------------------

  Core contribution to magnetic susceptibility:    -43.86  10^-6 cm^3/mole
 --------------------------------------------------------------------------


 ---------------------------------------------------------------------------------
  CSA tensor (J. Mason, Solid State Nucl. Magn. Reson. 2, 285 (1993))             
 ---------------------------------------------------------------------------------
             EXCLUDING G=0 CONTRIBUTION             INCLUDING G=0 CONTRIBUTION    
         -----------------------------------   -----------------------------------
  ATOM    ISO_SHIFT        SPAN        SKEW     ISO_SHIFT        SPAN        SKEW 
 ---------------------------------------------------------------------------------
  (absolute, valence only)                                                                  
     1    -181.4609     17.8815      0.6549     -185.7237     17.8938      0.6380
     2    -181.4609     17.8815      0.6549     -185.7237     17.8938      0.6380
     3    -181.4609     17.8815      0.6549     -185.7237     17.8938      0.6380
     4    -181.4609     17.8815      0.6549     -185.7237     17.8938      0.6380
     5    6304.7266    518.3077      0.2757     6300.4638    518.4564      0.2758
     6    6304.7266    518.3077      0.2757     6300.4638    518.4564      0.2758
     7    6304.7266    518.3077      0.2757     6300.4638    518.4564      0.2758
     8    6304.7266    518.3077      0.2757     6300.4638    518.4564      0.2758
     9     447.9550    415.0751      0.8907      443.6922    415.2448      0.8908
    10     447.9550    415.0751      0.8907      443.6922    415.2448      0.8908
    11     447.9550    415.0751      0.8907      443.6922    415.2448      0.8908
    12     447.9550    415.0751      0.8907      443.6922    415.2448      0.8908
    13     456.0028    466.6831      0.8501      451.7399    466.5050      0.8509
    14     456.0028    466.6831      0.8501      451.7399    466.5050      0.8509
    15     456.0028    466.6831      0.8501      451.7399    466.5050      0.8509
    16     456.0028    466.6831      0.8501      451.7399    466.5050      0.8509
    17      87.3778    134.3695      0.0224       83.1150    134.1985      0.0238
    18      87.3778    134.3695      0.0224       83.1150    134.1985      0.0238
    19      87.3778    134.3695      0.0224       83.1150    134.1985      0.0238
    20      87.3778    134.3695      0.0224       83.1150    134.1985      0.0238
    21     135.5241    199.7391     -0.1186      131.2612    199.5791     -0.1179
    22     135.5241    199.7391     -0.1186      131.2612    199.5791     -0.1179
    23     135.5241    199.7391     -0.1186      131.2612    199.5791     -0.1179
    24     135.5241    199.7391     -0.1186      131.2612    199.5791     -0.1179
 ---------------------------------------------------------------------------------
  (absolute, valence and core)                                                                  
     1    -558.7420     17.8815      0.6549     -564.8942     17.8938      0.6380
     2    -558.7420     17.8815      0.6549     -564.8942     17.8938      0.6380
     3    -558.7420     17.8815      0.6549     -564.8942     17.8938      0.6380
     4    -558.7420     17.8815      0.6549     -564.8942     17.8938      0.6380
     5   -2907.9980    518.3077      0.2757    -2914.1502    518.4564      0.2758
     6   -2907.9980    518.3077      0.2757    -2914.1502    518.4564      0.2758
     7   -2907.9980    518.3077      0.2757    -2914.1502    518.4564      0.2758
     8   -2907.9980    518.3077      0.2757    -2914.1502    518.4564      0.2758
     9     176.8783    415.0751      0.8907      170.7261    415.2448      0.8908
    10     176.8783    415.0751      0.8907      170.7261    415.2448      0.8908
    11     176.8783    415.0751      0.8907      170.7261    415.2448      0.8908
    12     176.8783    415.0751      0.8907      170.7261    415.2448      0.8908
    13     184.9261    466.6831      0.8501      178.7739    466.5050      0.8509
    14     184.9261    466.6831      0.8501      178.7739    466.5050      0.8509
    15     184.9261    466.6831      0.8501      178.7739    466.5050      0.8509
    16     184.9261    466.6831      0.8501      178.7739    466.5050      0.8509
    17    -219.0416    134.3695      0.0224     -225.1938    134.1985      0.0238
    18    -219.0416    134.3695      0.0224     -225.1938    134.1985      0.0238
    19    -219.0416    134.3695      0.0224     -225.1938    134.1985      0.0238
    20    -219.0416    134.3695      0.0224     -225.1938    134.1985      0.0238
    21    -170.8953    199.7391     -0.1186     -177.0475    199.5791     -0.1179
    22    -170.8953    199.7391     -0.1186     -177.0475    199.5791     -0.1179
    23    -170.8953    199.7391     -0.1186     -177.0475    199.5791     -0.1179
    24    -170.8953    199.7391     -0.1186     -177.0475    199.5791     -0.1179
 ---------------------------------------------------------------------------------
  IF SPAN.EQ.0, THEN SKEW IS ILL-DEFINED                                          
 ---------------------------------------------------------------------------------


 writing wavefunctions
     LOOP+:  cpu time37643.6025: real time37646.8099
    4ORBIT:  cpu time    0.0000: real time    0.0000

 total amount of memory used by VASP MPI-rank0   539702. kBytes
=======================================================================

   base      :      30000. kBytes
   nonlr-proj:       8564. kBytes
   fftplans  :      20492. kBytes
   grid      :      46129. kBytes
   one-center:        778. kBytes
   wavefun   :     433739. kBytes

  
  
 General timing and accounting informations for this job:
 ========================================================
  
                  Total CPU time used (sec):    37653.809
                            User time (sec):    37622.852
                          System time (sec):       30.957
                         Elapsed time (sec):    37657.206
  
                   Maximum memory used (kb):     2310640.
                   Average memory used (kb):          N/A
  
                          Minor page faults:       217671
                          Major page faults:            2
                 Voluntary context switches:         1529
