unknown system                          
           1
     8.099730    0.000000    0.000000
     0.000000    5.439130    0.000000
    -1.575373    0.000000    7.330788
   Na   Ta   O    F 
     4     4     8     8
Direct configuration=     1
   0.37670001  0.79320002  0.10920000
   0.62329996  0.20679998  0.89080000
   0.62329996  0.29320002  0.39080000
   0.37670001  0.70679998  0.60920000
   0.15807000  0.25979999  0.29815999
   0.84193003  0.74020004  0.70184004
   0.84193003  0.75979996  0.20184001
   0.15807000  0.24020001  0.79815996
   0.19850001  0.15430000  0.05330000
   0.80149996  0.84570003  0.94669998
   0.80149996  0.65429997  0.44670001
   0.19850001  0.34570000  0.55330002
   0.03670000  0.55919999  0.21630000
   0.96329999  0.44080001  0.78369999
   0.96329999  0.05919999  0.28369999
   0.03670000  0.94080001  0.71630001
   0.37639999  0.47189999  0.30370000
   0.62360001  0.52810001  0.69630003
   0.62360001  0.97189999  0.19630000
   0.37639999  0.02810001  0.80369997
   0.33039999  0.98229998  0.37670001
   0.66960001  0.01770002  0.62329996
   0.66960001  0.48229998  0.12329999
   0.33039999  0.51770002  0.87670004
